      -----------------------------------------------------------      
     |                   =====================                   |     
     |                           x T B                           |     
     |                   =====================                   |     
     |                         S. Grimme                         |     
     |          Mulliken Center for Theoretical Chemistry        |     
     |                    University of Bonn                     |     
      -----------------------------------------------------------      

   * xtb version 6.7.1 (unknown) compiled by 'runner@Mac-1732184002186.local' on 2024-11-21

   xtb is free software: you can redistribute it and/or modify it under
   the terms of the GNU Lesser General Public License as published by
   the Free Software Foundation, either version 3 of the License, or
   (at your option) any later version.
   
   xtb is distributed in the hope that it will be useful,
   but WITHOUT ANY WARRANTY; without even the implied warranty of
   MERCHANTABILITY or FITNESS FOR A PARTICULAR PURPOSE.  See the
   GNU Lesser General Public License for more details.
   
   Cite this work as:
   * C. Bannwarth, E. Caldeweyher, S. Ehlert, A. Hansen, P. Pracht,
     J. Seibert, S. Spicher, S. Grimme, WIREs Comput. Mol. Sci., 2020, 11,
     e01493. DOI: 10.1002/wcms.1493
   
   for GFN2-xTB:
   * C. Bannwarth, S. Ehlert and S. Grimme., J. Chem. Theory Comput., 2019,
     15, 1652-1671. DOI: 10.1021/acs.jctc.8b01176
   for GFN1-xTB:
   * S. Grimme, C. Bannwarth, P. Shushkov, J. Chem. Theory Comput., 2017,
     13, 1989-2009. DOI: 10.1021/acs.jctc.7b00118
   for GFN0-xTB:
   * P. Pracht, E. Caldeweyher, S. Ehlert, S. Grimme, ChemRxiv, 2019, preprint.
     DOI: 10.26434/chemrxiv.8326202.v1
   for GFN-FF:
   * S. Spicher and S. Grimme, Angew. Chem. Int. Ed., 2020, 59, 15665-15673.
     DOI: 10.1002/anie.202004239
   
   for ALPB and GBSA implicit solvation:
   * S. Ehlert, M. Stahn, S. Spicher, S. Grimme, J. Chem. Theory Comput.,
     2021, 17, 4250-4261. DOI: 10.1021/acs.jctc.1c00471
   
   for ddCOSMO and CPCM-X implicit solvation:
   * M. Stahn, S. Ehlert, S. Grimme, J. Phys. Chem. A,
     2023, XX, XXXX-XXXX. DOI: 10.1021/acs.jpca.3c04382
   
   for DFT-D4:
   * E. Caldeweyher, C. Bannwarth and S. Grimme, J. Chem. Phys., 2017,
     147, 034112. DOI: 10.1063/1.4993215
   * E. Caldeweyher, S. Ehlert, A. Hansen, H. Neugebauer, S. Spicher,
     C. Bannwarth and S. Grimme, J. Chem. Phys., 2019, 150, 154122.
     DOI: 10.1063/1.5090222
   * E. Caldeweyher, J.-M. Mewes, S. Ehlert and S. Grimme, Phys. Chem. Chem. Phys.
     2020, 22, 8499-8512. DOI: 10.1039/D0CP00502A
   
   for sTDA-xTB:
   * S. Grimme and C. Bannwarth, J. Chem. Phys., 2016, 145, 054103.
     DOI: 10.1063/1.4959605
   
   in the mass-spec context:
   * V. Asgeirsson, C. Bauer and S. Grimme, Chem. Sci., 2017, 8, 4879.
     DOI: 10.1039/c7sc00601b
   * J. Koopman and S. Grimme, ACS Omega 2019, 4, 12, 15120-15133.
     DOI: 10.1021/acsomega.9b02011
   
   for metadynamics refer to:
   * S. Grimme, J. Chem. Theory Comput., 2019, 155, 2847-2862
     DOI: 10.1021/acs.jctc.9b00143
   
   for SPH calculations refer to:
   * S. Spicher and S. Grimme, J. Chem. Theory Comput., 2021, 17, 1701-1714
     DOI: 10.1021/acs.jctc.0c01306
   
   for ONIOM refer to:
   * C. Plett, A. Katbashev, S. Ehlert, S. Grimme, M. Bursch,
     Phys. Chem. Chem. Phys., 2023, 25, 17860-17868. DOI: 10.1039/D3CP02178E
   
   for DIPRO refer to:
   * J. Kohn, N. Gildemeister, S. Grimme, D. Fazzi, A. Hansen,
     J. Chem. Phys., 2023, just accepted.
   
   for PTB refer to:
   * S. Grimme, M. Mueller, A. Hansen, J. Chem. Phys., 2023, 158, 124111.
     DOI: 10.1063/5.0137838
   
   with help from (in alphabetical order)
   P. Atkinson, C. Bannwarth, F. Bohle, G. Brandenburg, E. Caldeweyher
   M. Checinski, S. Dohm, S. Ehlert, S. Ehrlich, I. Gerasimov, C. Hölzer
   A. Katbashev, J. Kohn, J. Koopman, C. Lavigne, S. Lehtola, F. März, M. Müller,
   F. Musil, H. Neugebauer, J. Pisarek, C. Plett, P. Pracht, F. Pultar,
   J. Seibert, P. Shushkov, S. Spicher, M. Stahn, M. Steiner, T. Strunk,
   J. Stückrath, T. Rose, and J. Unsleber
   
 * started run on 2025/06/26 at 10:21:02.879     
   ID    Z sym.   atoms
    1    1 H      1, 2, 4, 5, 7, 8, 10, 11, 13, 14, 16, 17, 19, 20, 22, 23,
                  25, 26, 28, 29, 31, 32, 34, 35, 37, 38, 40, 41
    2    8 O      3, 6, 9, 12, 15, 18, 21, 24, 27, 30, 33, 36, 39, 42

           -------------------------------------------------
          |                Calculation Setup                |
           -------------------------------------------------

          program call               : xtb ice_neighbors_4.xyz --gfn=2
          coordinate file            : ice_neighbors_4.xyz
          omp threads                :                     1


molecular fragmentation (1/2 indicates fragments):
111222222222222222222222222222222222222222
# atoms in fragment 1/2:     3    39
 fragment masses (1/2) :       18.02      234.20
CMA distance (Bohr)    :   5.556
constraining FC (au)   :  0.0500

           -------------------------------------------------
          |                 G F N 2 - x T B                 |
           -------------------------------------------------

        Reference                      10.1021/acs.jctc.8b01176
      * Hamiltonian:
        H0-scaling (s, p, d)           1.850000    2.230000    2.230000
        zeta-weighting                 0.500000
      * Dispersion:
        s8                             2.700000
        a1                             0.520000
        a2                             5.000000
        s9                             5.000000
      * Repulsion:
        kExp                           1.500000    1.000000
        rExp                           1.000000
      * Coulomb:
        alpha                          2.000000
        third order                    shell-resolved
        anisotropic                    true
        a3                             3.000000
        a5                             4.000000
        cn-shift                       1.200000
        cn-exp                         4.000000
        max-rad                        5.000000


          ...................................................
          :                      SETUP                      :
          :.................................................:
          :  # basis functions                  84          :
          :  # atomic orbitals                  84          :
          :  # shells                           56          :
          :  # electrons                       112          :
          :  max. iterations                   250          :
          :  Hamiltonian                  GFN2-xTB          :
          :  restarted?                      false          :
          :  GBSA solvation                  false          :
          :  PC potential                    false          :
          :  electronic temp.          300.0000000     K    :
          :  accuracy                    1.0000000          :
          :  -> integral cutoff          0.2500000E+02      :
          :  -> integral neglect         0.1000000E-07      :
          :  -> SCF convergence          0.1000000E-05 Eh   :
          :  -> wf. convergence          0.1000000E-03 e    :
          :  Broyden damping             0.4000000          :
          :  net charge                          0          :
          :  unpaired electrons                  0          :
          ...................................................

 iter      E             dE          RMSdq      gap      omega  full diag
   1    -71.2943521 -0.712944E+02  0.404E+00   10.98       0.0  T
   2    -71.3228367 -0.284846E-01  0.231E+00    9.51       1.0  T
   3    -71.3270680 -0.423136E-02  0.448E-01    7.60       1.0  T
   4    -71.3281483 -0.108034E-02  0.819E-02    7.78       1.0  T
   5    -71.3281945 -0.461033E-04  0.362E-02    7.70       1.0  T
   6    -71.3282025 -0.804361E-05  0.662E-03    7.74       2.3  T
   7    -71.3282029 -0.421147E-06  0.141E-03    7.74      11.0  T
   8    -71.3282029 -0.532721E-08  0.862E-04    7.74      17.9  T
   9    -71.3282029 -0.661439E-08  0.545E-05    7.74     283.1  T

   *** convergence criteria satisfied after 9 iterations ***

         #    Occupation            Energy/Eh            Energy/eV
      -------------------------------------------------------------
         1        2.0000           -0.7359196             -20.0254
       ...           ...                  ...                  ...
        50        2.0000           -0.4298899             -11.6979
        51        2.0000           -0.4274377             -11.6312
        52        2.0000           -0.4198298             -11.4241
        53        2.0000           -0.3926661             -10.6850
        54        2.0000           -0.3926465             -10.6845
        55        2.0000           -0.3787937             -10.3075
        56        2.0000           -0.3553308              -9.6690 (HOMO)
        57                         -0.0709563              -1.9308 (LUMO)
        58                         -0.0595950              -1.6217
        59                         -0.0541624              -1.4738
        60                         -0.0431105              -1.1731
        61                         -0.0073882              -0.2010
       ...                                ...                  ...
        84                          0.3287287               8.9452
      -------------------------------------------------------------
                  HL-Gap            0.2843745 Eh            7.7382 eV
             Fermi-level           -0.2131436 Eh           -5.7999 eV

 SCC (total)                   0 d,  0 h,  0 min,  0.016 sec
 SCC setup                      ...        0 min,  0.000 sec (  0.606%)
 Dispersion                     ...        0 min,  0.000 sec (  0.888%)
 classical contributions        ...        0 min,  0.000 sec (  0.476%)
 integral evaluation            ...        0 min,  0.002 sec ( 10.083%)
 iterations                     ...        0 min,  0.006 sec ( 39.517%)
 molecular gradient             ...        0 min,  0.008 sec ( 47.860%)
 printout                       ...        0 min,  0.000 sec (  0.564%)

         :::::::::::::::::::::::::::::::::::::::::::::::::::::
         ::                     SUMMARY                     ::
         :::::::::::::::::::::::::::::::::::::::::::::::::::::
         :: total energy             -71.020582982126 Eh    ::
         :: gradient norm              0.231785893831 Eh/a0 ::
         :: HOMO-LUMO gap              7.738224968000 eV    ::
         ::.................................................::
         :: SCC energy               -71.327619080054 Eh    ::
         :: -> isotropic ES            0.457171679428 Eh    ::
         :: -> anisotropic ES         -0.021202738345 Eh    ::
         :: -> anisotropic XC         -0.003924166460 Eh    ::
         :: -> dispersion             -0.012936202041 Eh    ::
         :: repulsion energy           0.307036097928 Eh    ::
         :: add. restraining           0.000000000000 Eh    ::
         :: total charge              -0.000000000000 e     ::
         :::::::::::::::::::::::::::::::::::::::::::::::::::::

           -------------------------------------------------
          |                Property Printout                |
           -------------------------------------------------

    * Orbital Energies and Occupations

         #    Occupation            Energy/Eh            Energy/eV
      -------------------------------------------------------------
         1        2.0000           -0.7359196             -20.0254
       ...           ...                  ...                  ...
        44        2.0000           -0.4477552             -12.1840
        45        2.0000           -0.4477287             -12.1833
        46        2.0000           -0.4432350             -12.0610
        47        2.0000           -0.4382772             -11.9261
        48        2.0000           -0.4350320             -11.8378
        49        2.0000           -0.4298901             -11.6979
        50        2.0000           -0.4298899             -11.6979
        51        2.0000           -0.4274377             -11.6312
        52        2.0000           -0.4198298             -11.4241
        53        2.0000           -0.3926661             -10.6850
        54        2.0000           -0.3926465             -10.6845
        55        2.0000           -0.3787937             -10.3075
        56        2.0000           -0.3553308              -9.6690 (HOMO)
        57                         -0.0709563              -1.9308 (LUMO)
        58                         -0.0595950              -1.6217
        59                         -0.0541624              -1.4738
        60                         -0.0431105              -1.1731
        61                         -0.0073882              -0.2010
        62                          0.0088403               0.2406
        63                          0.0364647               0.9923
        64                          0.0526991               1.4340
        65                          0.0540707               1.4713
        66                          0.0928320               2.5261
        67                          0.0950510               2.5865
       ...                                ...                  ...
        84                          0.3287287               8.9452
      -------------------------------------------------------------
                  HL-Gap            0.2843745 Eh            7.7382 eV
             Fermi-level           -0.2131436 Eh           -5.7999 eV

     #   Z          covCN         q      C6AA      α(0)
     1   1 H        0.798     0.304     0.709     1.323
     2   1 H        0.798     0.304     0.709     1.323
     3   8 O        1.595    -0.647    26.343     6.927
     4   1 H        0.798     0.248     0.902     1.493
     5   1 H        0.797     0.311     0.689     1.305
     6   8 O        1.595    -0.603    25.272     6.784
     7   1 H        0.798     0.294     0.741     1.353
     8   1 H        0.797     0.300     0.723     1.336
     9   8 O        1.595    -0.549    24.011     6.613
    10   1 H        0.798     0.294     0.741     1.353
    11   1 H        0.797     0.300     0.723     1.336
    12   8 O        1.595    -0.549    24.011     6.613
    13   1 H        0.798     0.248     0.902     1.493
    14   1 H        0.797     0.311     0.689     1.305
    15   8 O        1.595    -0.603    25.272     6.784
    16   1 H        0.798     0.308     0.698     1.313
    17   1 H        0.798     0.308     0.698     1.313
    18   8 O        1.595    -0.652    26.483     6.945
    19   1 H        0.798     0.311     0.690     1.305
    20   1 H        0.797     0.259     0.859     1.457
    21   8 O        1.595    -0.624    25.784     6.853
    22   1 H        0.798     0.249     0.900     1.491
    23   1 H        0.797     0.314     0.683     1.299
    24   8 O        1.595    -0.615    25.561     6.823
    25   1 H        0.798     0.321     0.661     1.278
    26   1 H        0.798     0.307     0.702     1.316
    27   8 O        1.596    -0.544    23.886     6.596
    28   1 H        0.798     0.300     0.724     1.337
    29   1 H        0.797     0.265     0.839     1.440
    30   8 O        1.595    -0.605    25.323     6.791
    31   1 H        0.798     0.297     0.730     1.343
    32   1 H        0.797     0.300     0.723     1.336
    33   8 O        1.595    -0.552    24.084     6.623
    34   1 H        0.798     0.307     0.702     1.316
    35   1 H        0.798     0.321     0.661     1.278
    36   8 O        1.596    -0.544    23.886     6.596
    37   1 H        0.798     0.300     0.724     1.337
    38   1 H        0.797     0.265     0.839     1.440
    39   8 O        1.595    -0.605    25.323     6.791
    40   1 H        0.798     0.297     0.730     1.343
    41   1 H        0.797     0.300     0.723     1.336
    42   8 O        1.595    -0.552    24.084     6.623

 Mol. C6AA /au·bohr⁶  :       8779.512574
 Mol. C8AA /au·bohr⁸  :     157374.781645
 Mol. α(0) /au        :        132.256854


Wiberg/Mayer (AO) data.
largest (>0.10) Wiberg bond orders for each atom

 ---------------------------------------------------------------------------
     #   Z sym  total        # sym  WBO       # sym  WBO       # sym  WBO
 ---------------------------------------------------------------------------
     1   1 H    0.907 --     3 O    0.842
     2   1 H    0.907 --     3 O    0.842
     3   8 O    1.858 --     2 H    0.842     1 H    0.842
     4   1 H    0.938 --     6 O    0.938
     5   1 H    0.903 --     6 O    0.841
     6   8 O    1.813 --     4 H    0.938     5 H    0.841
     7   1 H    0.914 --     9 O    0.911
     8   1 H    0.910 --     9 O    0.908
     9   8 O    1.912 --     7 H    0.911     8 H    0.908
    10   1 H    0.914 --    12 O    0.911
    11   1 H    0.910 --    12 O    0.908
    12   8 O    1.912 --    10 H    0.911    11 H    0.908
    13   1 H    0.938 --    15 O    0.938
    14   1 H    0.903 --    15 O    0.841
    15   8 O    1.813 --    13 H    0.938    14 H    0.841
    16   1 H    0.905 --    18 O    0.840
    17   1 H    0.905 --    18 O    0.840
    18   8 O    1.856 --    16 H    0.840    17 H    0.840
    19   1 H    0.903 --    21 O    0.830
    20   1 H    0.933 --    21 O    0.932
    21   8 O    1.800 --    20 H    0.932    19 H    0.830
    22   1 H    0.938 --    24 O    0.938
    23   1 H    0.902 --    24 O    0.830
    24   8 O    1.804 --    22 H    0.938    23 H    0.830
    25   1 H    0.897 --    27 O    0.891
    26   1 H    0.906 --    27 O    0.901
    27   8 O    1.971 --    26 H    0.901    25 H    0.891
    28   1 H    0.910 --    30 O    0.850
    29   1 H    0.930 --    30 O    0.930
    30   8 O    1.815 --    29 H    0.930    28 H    0.850
    31   1 H    0.912 --    33 O    0.909
    32   1 H    0.910 --    33 O    0.908
    33   8 O    1.911 --    31 H    0.909    32 H    0.908
    34   1 H    0.906 --    36 O    0.901
    35   1 H    0.897 --    36 O    0.891
    36   8 O    1.971 --    34 H    0.901    35 H    0.891
    37   1 H    0.910 --    39 O    0.850
    38   1 H    0.930 --    39 O    0.930
    39   8 O    1.815 --    38 H    0.930    37 H    0.850
    40   1 H    0.912 --    42 O    0.909
    41   1 H    0.910 --    42 O    0.908
    42   8 O    1.911 --    40 H    0.909    41 H    0.908
 ---------------------------------------------------------------------------

Topologies differ in total number of bonds
Writing topology from bond orders to xtbtopo.mol

molecular dipole:
                 x           y           z       tot (Debye)
 q only:        1.076      -1.864       6.018
   full:        1.355      -2.348       7.984      21.430
molecular quadrupole (traceless):
                xx          xy          yy          xz          yz          zz
 q only:        0.344      21.388     -24.353     -20.717      35.882      24.009
  q+dip:       -0.308      29.741     -34.650     -28.533      49.421      34.958
   full:       -0.566      30.129     -35.356     -28.526      49.409      35.922


           -------------------------------------------------
          | TOTAL ENERGY              -71.020582982126 Eh   |
          | GRADIENT NORM               0.231785893831 Eh/α |
          | HOMO-LUMO GAP               7.738224968000 eV   |
           -------------------------------------------------
########################################################################
[WARNING] Runtime exception occurred
-2- restart_readRestart: Dimension missmatch in restart file.
-1- restart_readRestart: Number of electron missmatch in restart file.
########################################################################

------------------------------------------------------------------------
 * finished run on 2025/06/26 at 10:21:02.906     
------------------------------------------------------------------------
 total:
 * wall-time:     0 d,  0 h,  0 min,  0.027 sec
 *  cpu-time:     0 d,  0 h,  0 min,  0.020 sec
 * ratio c/w:     0.756 speedup
 SCF:
 * wall-time:     0 d,  0 h,  0 min,  0.016 sec
 *  cpu-time:     0 d,  0 h,  0 min,  0.016 sec
 * ratio c/w:     1.000 speedup

