      -----------------------------------------------------------      
     |                   =====================                   |     
     |                           x T B                           |     
     |                   =====================                   |     
     |                         S. Grimme                         |     
     |          Mulliken Center for Theoretical Chemistry        |     
     |                    University of Bonn                     |     
      -----------------------------------------------------------      

   * xtb version 6.7.1 (unknown) compiled by 'runner@Mac-1732184002186.local' on 2024-11-21

   xtb is free software: you can redistribute it and/or modify it under
   the terms of the GNU Lesser General Public License as published by
   the Free Software Foundation, either version 3 of the License, or
   (at your option) any later version.
   
   xtb is distributed in the hope that it will be useful,
   but WITHOUT ANY WARRANTY; without even the implied warranty of
   MERCHANTABILITY or FITNESS FOR A PARTICULAR PURPOSE.  See the
   GNU Lesser General Public License for more details.
   
   Cite this work as:
   * C. Bannwarth, E. Caldeweyher, S. Ehlert, A. Hansen, P. Pracht,
     J. Seibert, S. Spicher, S. Grimme, WIREs Comput. Mol. Sci., 2020, 11,
     e01493. DOI: 10.1002/wcms.1493
   
   for GFN2-xTB:
   * C. Bannwarth, S. Ehlert and S. Grimme., J. Chem. Theory Comput., 2019,
     15, 1652-1671. DOI: 10.1021/acs.jctc.8b01176
   for GFN1-xTB:
   * S. Grimme, C. Bannwarth, P. Shushkov, J. Chem. Theory Comput., 2017,
     13, 1989-2009. DOI: 10.1021/acs.jctc.7b00118
   for GFN0-xTB:
   * P. Pracht, E. Caldeweyher, S. Ehlert, S. Grimme, ChemRxiv, 2019, preprint.
     DOI: 10.26434/chemrxiv.8326202.v1
   for GFN-FF:
   * S. Spicher and S. Grimme, Angew. Chem. Int. Ed., 2020, 59, 15665-15673.
     DOI: 10.1002/anie.202004239
   
   for ALPB and GBSA implicit solvation:
   * S. Ehlert, M. Stahn, S. Spicher, S. Grimme, J. Chem. Theory Comput.,
     2021, 17, 4250-4261. DOI: 10.1021/acs.jctc.1c00471
   
   for ddCOSMO and CPCM-X implicit solvation:
   * M. Stahn, S. Ehlert, S. Grimme, J. Phys. Chem. A,
     2023, XX, XXXX-XXXX. DOI: 10.1021/acs.jpca.3c04382
   
   for DFT-D4:
   * E. Caldeweyher, C. Bannwarth and S. Grimme, J. Chem. Phys., 2017,
     147, 034112. DOI: 10.1063/1.4993215
   * E. Caldeweyher, S. Ehlert, A. Hansen, H. Neugebauer, S. Spicher,
     C. Bannwarth and S. Grimme, J. Chem. Phys., 2019, 150, 154122.
     DOI: 10.1063/1.5090222
   * E. Caldeweyher, J.-M. Mewes, S. Ehlert and S. Grimme, Phys. Chem. Chem. Phys.
     2020, 22, 8499-8512. DOI: 10.1039/D0CP00502A
   
   for sTDA-xTB:
   * S. Grimme and C. Bannwarth, J. Chem. Phys., 2016, 145, 054103.
     DOI: 10.1063/1.4959605
   
   in the mass-spec context:
   * V. Asgeirsson, C. Bauer and S. Grimme, Chem. Sci., 2017, 8, 4879.
     DOI: 10.1039/c7sc00601b
   * J. Koopman and S. Grimme, ACS Omega 2019, 4, 12, 15120-15133.
     DOI: 10.1021/acsomega.9b02011
   
   for metadynamics refer to:
   * S. Grimme, J. Chem. Theory Comput., 2019, 155, 2847-2862
     DOI: 10.1021/acs.jctc.9b00143
   
   for SPH calculations refer to:
   * S. Spicher and S. Grimme, J. Chem. Theory Comput., 2021, 17, 1701-1714
     DOI: 10.1021/acs.jctc.0c01306
   
   for ONIOM refer to:
   * C. Plett, A. Katbashev, S. Ehlert, S. Grimme, M. Bursch,
     Phys. Chem. Chem. Phys., 2023, 25, 17860-17868. DOI: 10.1039/D3CP02178E
   
   for DIPRO refer to:
   * J. Kohn, N. Gildemeister, S. Grimme, D. Fazzi, A. Hansen,
     J. Chem. Phys., 2023, just accepted.
   
   for PTB refer to:
   * S. Grimme, M. Mueller, A. Hansen, J. Chem. Phys., 2023, 158, 124111.
     DOI: 10.1063/5.0137838
   
   with help from (in alphabetical order)
   P. Atkinson, C. Bannwarth, F. Bohle, G. Brandenburg, E. Caldeweyher
   M. Checinski, S. Dohm, S. Ehlert, S. Ehrlich, I. Gerasimov, C. Hölzer
   A. Katbashev, J. Kohn, J. Koopman, C. Lavigne, S. Lehtola, F. März, M. Müller,
   F. Musil, H. Neugebauer, J. Pisarek, C. Plett, P. Pracht, F. Pultar,
   J. Seibert, P. Shushkov, S. Spicher, M. Stahn, M. Steiner, T. Strunk,
   J. Stückrath, T. Rose, and J. Unsleber
   
 * started run on 2025/07/06 at 13:14:06.392     
   ID    Z sym.   atoms
    1    1 H      1, 2, 4, 5, 7, 8, 10, 11, 13, 14, 16, 17, 19, 20, 22, 23,
                  25, 26, 28, 29, 31, 32, 34, 35, 37, 38, 40, 41, 43, 44, 46,
                  47, 49, 50, 52, 53, 55, 56, 58, 59, 61, 62, 64, 65, 67, 68,
                  70, 71, 73, 74, 76, 77, 79, 80, 82, 83, 85, 86, 88, 89, 91,
                  92, 94, 95, 97, 98, 100, 101, 103, 104, 106, 107, 109, 110,
                  112, 113, 115, 116, 118, 119, 121, 122, 124, 125, 127, 128,
                  130, 131, 133, 134, 136, 137, 139, 140, 142, 143, 145, 146,
                  148, 149, 151, 152, 154, 155, 157, 158, 160, 161, 163, 164,
                  166, 167, 169, 170, 172, 173, 175, 176, 178, 179, 181, 182,
                  184, 185, 187, 188, 190, 191, 193, 194, 196, 197, 199, 200,
                  202, 203, 205, 206, 208, 209, 211, 212, 214, 215, 217, 218,
                  220, 221, 223, 224, 226, 227, 229, 230, 232, 233, 235, 236,
                  238, 239, 241, 242, 244, 245, 247, 248, 250, 251, 253, 254,
                  256, 257, 259, 260, 262, 263, 265, 266, 268, 269, 271, 272,
                  274, 275, 277, 278, 280, 281, 283, 284, 286, 287
    2    8 O      3, 6, 9, 12, 15, 18, 21, 24, 27, 30, 33, 36, 39, 42, 45,
                  48, 51, 54, 57, 60, 63, 66, 69, 72, 75, 78, 81, 84, 87, 90,
                  93, 96, 99, 102, 105, 108, 111, 114, 117, 120, 123, 126,
                  129, 132, 135, 138, 141, 144, 147, 150, 153, 156, 159, 162,
                  165, 168, 171, 174, 177, 180, 183, 186, 189, 192, 195, 198,
                  201, 204, 207, 210, 213, 216, 219, 222, 225, 228, 231, 234,
                  237, 240, 243, 246, 249, 252, 255, 258, 261, 264, 267, 270,
                  273, 276, 279, 282, 285, 288

           -------------------------------------------------
          |                Calculation Setup                |
           -------------------------------------------------

          program call               : xtb ice_neighbors_8.xyz --gfn2
          coordinate file            : ice_neighbors_8.xyz
          omp threads                :                     1


molecular fragmentation (1/2 indicates fragments):
111222222222222222222222222222222222222222222222222222222222222222222222
222222222222222222222222222222222222222222222222222222222222222222222222
222222222222222222222222222222222222222222222222222222222222222222222222
222222222222222222222222222222222222222222222222222222222222222222222222
# atoms in fragment 1/2:     3   285
 fragment masses (1/2) :       18.02     1711.45
CMA distance (Bohr)    :  15.741
constraining FC (au)   :  0.0500

           -------------------------------------------------
          |                 G F N 2 - x T B                 |
           -------------------------------------------------

        Reference                      10.1021/acs.jctc.8b01176
      * Hamiltonian:
        H0-scaling (s, p, d)           1.850000    2.230000    2.230000
        zeta-weighting                 0.500000
      * Dispersion:
        s8                             2.700000
        a1                             0.520000
        a2                             5.000000
        s9                             5.000000
      * Repulsion:
        kExp                           1.500000    1.000000
        rExp                           1.000000
      * Coulomb:
        alpha                          2.000000
        third order                    shell-resolved
        anisotropic                    true
        a3                             3.000000
        a5                             4.000000
        cn-shift                       1.200000
        cn-exp                         4.000000
        max-rad                        5.000000


          ...................................................
          :                      SETUP                      :
          :.................................................:
          :  # basis functions                 576          :
          :  # atomic orbitals                 576          :
          :  # shells                          384          :
          :  # electrons                       768          :
          :  max. iterations                   250          :
          :  Hamiltonian                  GFN2-xTB          :
          :  restarted?                      false          :
          :  GBSA solvation                  false          :
          :  PC potential                    false          :
          :  electronic temp.          300.0000000     K    :
          :  accuracy                    1.0000000          :
          :  -> integral cutoff          0.2500000E+02      :
          :  -> integral neglect         0.1000000E-07      :
          :  -> SCF convergence          0.1000000E-05 Eh   :
          :  -> wf. convergence          0.1000000E-03 e    :
          :  Broyden damping             0.4000000          :
          :  net charge                          0          :
          :  unpaired electrons                  0          :
          ...................................................

 iter      E             dE          RMSdq      gap      omega  full diag
   1   -489.9378389 -0.489938E+03  0.392E+00    9.82       0.0  T
   2   -490.0567151 -0.118876E+00  0.229E+00    5.99       1.0  T
   3   -490.0791583 -0.224432E-01  0.350E-01    0.53       1.0  T
   4   -490.0848828 -0.572456E-02  0.671E-02    0.91       1.0  T
   5   -490.0850863 -0.203450E-03  0.314E-02    0.80       1.0  T
   6   -490.0851153 -0.290078E-04  0.642E-03    0.90       1.0  T
   7   -490.0851168 -0.146317E-05  0.170E-03    0.89       3.5  T
   8   -490.0851169 -0.831849E-07  0.845E-04    0.89       7.0  T
   9   -490.0851169 -0.386124E-07  0.108E-04    0.89      54.6  T

   *** convergence criteria satisfied after 9 iterations ***

         #    Occupation            Energy/Eh            Energy/eV
      -------------------------------------------------------------
         1        2.0000           -0.8527231             -23.2038
       ...           ...                  ...                  ...
       378        2.0000           -0.2790831              -7.5942
       379        2.0000           -0.2547212              -6.9313
       380        2.0000           -0.2488541              -6.7717
       381        2.0000           -0.2373404              -6.4584
       382        2.0000           -0.2373035              -6.4574
       383        2.0000           -0.2292363              -6.2378
       384        2.0000           -0.2292316              -6.2377 (HOMO)
       385                         -0.1965528              -5.3485 (LUMO)
       386                         -0.1793736              -4.8810
       387                         -0.1627192              -4.4278
       388                         -0.1373493              -3.7375
       389                         -0.1310396              -3.5658
       ...                                ...                  ...
       576                          0.4833539              13.1527
      -------------------------------------------------------------
                  HL-Gap            0.0326789 Eh            0.8892 eV
             Fermi-level           -0.2125640 Eh           -5.7842 eV

 SCC (total)                   0 d,  0 h,  0 min,  1.300 sec
 SCC setup                      ...        0 min,  0.003 sec (  0.193%)
 Dispersion                     ...        0 min,  0.006 sec (  0.447%)
 classical contributions        ...        0 min,  0.003 sec (  0.226%)
 integral evaluation            ...        0 min,  0.049 sec (  3.751%)
 iterations                     ...        0 min,  0.489 sec ( 37.590%)
 molecular gradient             ...        0 min,  0.744 sec ( 57.248%)
 printout                       ...        0 min,  0.007 sec (  0.544%)

         :::::::::::::::::::::::::::::::::::::::::::::::::::::
         ::                     SUMMARY                     ::
         :::::::::::::::::::::::::::::::::::::::::::::::::::::
         :: total energy            -487.952778702780 Eh    ::
         :: gradient norm              0.492839337075 Eh/a0 ::
         :: HOMO-LUMO gap              0.889236975310 eV    ::
         ::.................................................::
         :: SCC energy              -490.064943185997 Eh    ::
         :: -> isotropic ES            3.050688129296 Eh    ::
         :: -> anisotropic ES         -0.416242215505 Eh    ::
         :: -> anisotropic XC         -0.031404750193 Eh    ::
         :: -> dispersion             -0.173640566663 Eh    ::
         :: repulsion energy           2.112164483217 Eh    ::
         :: add. restraining           0.000000000000 Eh    ::
         :: total charge               0.000000000001 e     ::
         :::::::::::::::::::::::::::::::::::::::::::::::::::::

           -------------------------------------------------
          |                Property Printout                |
           -------------------------------------------------

    * Orbital Energies and Occupations

         #    Occupation            Energy/Eh            Energy/eV
      -------------------------------------------------------------
         1        2.0000           -0.8527231             -23.2038
       ...           ...                  ...                  ...
       372        2.0000           -0.2978587              -8.1051
       373        2.0000           -0.2896067              -7.8806
       374        2.0000           -0.2886577              -7.8548
       375        2.0000           -0.2854898              -7.7686
       376        2.0000           -0.2847533              -7.7485
       377        2.0000           -0.2824318              -7.6854
       378        2.0000           -0.2790831              -7.5942
       379        2.0000           -0.2547212              -6.9313
       380        2.0000           -0.2488541              -6.7717
       381        2.0000           -0.2373404              -6.4584
       382        2.0000           -0.2373035              -6.4574
       383        2.0000           -0.2292363              -6.2378
       384        2.0000           -0.2292316              -6.2377 (HOMO)
       385                         -0.1965528              -5.3485 (LUMO)
       386                         -0.1793736              -4.8810
       387                         -0.1627192              -4.4278
       388                         -0.1373493              -3.7375
       389                         -0.1310396              -3.5658
       390                         -0.1190691              -3.2400
       391                         -0.1069271              -2.9096
       392                         -0.1052972              -2.8653
       393                         -0.1046328              -2.8472
       394                         -0.0931072              -2.5336
       395                         -0.0908391              -2.4719
       ...                                ...                  ...
       576                          0.4833539              13.1527
      -------------------------------------------------------------
                  HL-Gap            0.0326789 Eh            0.8892 eV
             Fermi-level           -0.2125640 Eh           -5.7842 eV

     #   Z          covCN         q      C6AA      α(0)
     1   1 H        0.798     0.339     0.615     1.232
     2   1 H        0.798     0.296     0.736     1.348
     3   8 O        1.596    -0.595    25.074     6.758
     4   1 H        0.798     0.323     0.658     1.275
     5   1 H        0.798     0.246     0.911     1.500
     6   8 O        1.595    -0.621    25.694     6.841
     7   1 H        0.798     0.327     0.646     1.263
     8   1 H        0.798     0.278     0.792     1.399
     9   8 O        1.595    -0.607    25.365     6.797
    10   1 H        0.798     0.313     0.685     1.301
    11   1 H        0.798     0.313     0.685     1.301
    12   8 O        1.596    -0.543    23.878     6.595
    13   1 H        0.798     0.327     0.647     1.264
    14   1 H        0.798     0.327     0.647     1.264
    15   8 O        1.596    -0.651    26.441     6.939
    16   1 H        0.798     0.315     0.680     1.296
    17   1 H        0.798     0.315     0.680     1.296
    18   8 O        1.595    -0.663    26.764     6.982
    19   1 H        0.798     0.294     0.739     1.351
    20   1 H        0.798     0.294     0.739     1.351
    21   8 O        1.595    -0.673    27.018     7.015
    22   1 H        0.798     0.310     0.693     1.308
    23   1 H        0.798     0.310     0.693     1.308
    24   8 O        1.595    -0.648    26.364     6.929
    25   1 H        0.798     0.296     0.736     1.348
    26   1 H        0.798     0.339     0.615     1.232
    27   8 O        1.596    -0.595    25.074     6.758
    28   1 H        0.798     0.246     0.911     1.500
    29   1 H        0.798     0.323     0.658     1.275
    30   8 O        1.595    -0.621    25.694     6.841
    31   1 H        0.798     0.278     0.792     1.399
    32   1 H        0.798     0.327     0.646     1.263
    33   8 O        1.595    -0.607    25.365     6.797
    34   1 H        0.798     0.297     0.731     1.344
    35   1 H        0.797     0.324     0.654     1.271
    36   8 O        1.595    -0.654    26.536     6.952
    37   1 H        0.798     0.317     0.674     1.290
    38   1 H        0.797     0.295     0.737     1.349
    39   8 O        1.595    -0.610    25.441     6.807
    40   1 H        0.798     0.270     0.819     1.422
    41   1 H        0.797     0.312     0.686     1.302
    42   8 O        1.595    -0.666    26.835     6.991
    43   1 H        0.798     0.317     0.673     1.289
    44   1 H        0.797     0.333     0.631     1.249
    45   8 O        1.595    -0.651    26.455     6.941
    46   1 H        0.798     0.285     0.771     1.380
    47   1 H        0.797     0.358     0.570     1.186
    48   8 O        1.595    -0.609    25.412     6.803
    49   1 H        0.798     0.333     0.632     1.249
    50   1 H        0.797     0.306     0.704     1.319
    51   8 O        1.595    -0.600    25.198     6.774
    52   1 H        0.798     0.297     0.731     1.344
    53   1 H        0.797     0.324     0.654     1.271
    54   8 O        1.595    -0.654    26.536     6.952
    55   1 H        0.798     0.317     0.674     1.290
    56   1 H        0.797     0.295     0.737     1.349
    57   8 O        1.595    -0.610    25.441     6.807
    58   1 H        0.798     0.318     0.671     1.288
    59   1 H        0.798     0.327     0.645     1.262
    60   8 O        1.596    -0.643    26.238     6.913
    61   1 H        0.798     0.326     0.649     1.266
    62   1 H        0.798     0.331     0.635     1.252
    63   8 O        1.596    -0.653    26.511     6.949
    64   1 H        0.798     0.318     0.671     1.287
    65   1 H        0.798     0.335     0.626     1.243
    66   8 O        1.596    -0.648    26.387     6.932
    67   1 H        0.798     0.328     0.643     1.260
    68   1 H        0.798     0.331     0.635     1.252
    69   8 O        1.596    -0.657    26.603     6.961
    70   1 H        0.798     0.337     0.622     1.239
    71   1 H        0.798     0.320     0.665     1.282
    72   8 O        1.596    -0.649    26.408     6.935
    73   1 H        0.798     0.338     0.619     1.237
    74   1 H        0.798     0.316     0.675     1.291
    75   8 O        1.596    -0.648    26.371     6.930
    76   1 H        0.798     0.287     0.762     1.372
    77   1 H        0.797     0.306     0.706     1.320
    78   8 O        1.595    -0.689    27.435     7.069
    79   1 H        0.798     0.320     0.665     1.282
    80   1 H        0.797     0.341     0.611     1.229
    81   8 O        1.595    -0.656    26.574     6.957
    82   1 H        0.798     0.276     0.800     1.406
    83   1 H        0.797     0.334     0.629     1.246
    84   8 O        1.595    -0.608    25.399     6.801
    85   1 H        0.798     0.234     0.959     1.539
    86   1 H        0.797     0.325     0.652     1.269
    87   8 O        1.595    -0.613    25.516     6.817
    88   1 H        0.798     0.329     0.642     1.259
    89   1 H        0.797     0.263     0.846     1.446
    90   8 O        1.595    -0.599    25.175     6.771
    91   1 H        0.798     0.318     0.671     1.287
    92   1 H        0.797     0.340     0.613     1.230
    93   8 O        1.595    -0.655    26.556     6.955
    94   1 H        0.798     0.313     0.683     1.299
    95   1 H        0.797     0.327     0.646     1.263
    96   8 O        1.595    -0.555    24.136     6.630
    97   1 H        0.798     0.327     0.647     1.264
    98   1 H        0.797     0.284     0.773     1.381
    99   8 O        1.595    -0.613    25.520     6.818
   100   1 H        0.798     0.313     0.685     1.300
   101   1 H        0.797     0.340     0.613     1.230
   102   8 O        1.595    -0.654    26.539     6.952
   103   1 H        0.798     0.276     0.799     1.404
   104   1 H        0.797     0.333     0.631     1.248
   105   8 O        1.595    -0.608    25.398     6.801
   106   1 H        0.798     0.335     0.626     1.243
   107   1 H        0.798     0.318     0.671     1.287
   108   8 O        1.596    -0.648    26.387     6.932
   109   1 H        0.798     0.331     0.635     1.252
   110   1 H        0.798     0.328     0.643     1.260
   111   8 O        1.596    -0.657    26.603     6.961
   112   1 H        0.798     0.320     0.665     1.282
   113   1 H        0.798     0.337     0.622     1.239
   114   8 O        1.596    -0.649    26.408     6.935
   115   1 H        0.798     0.316     0.675     1.291
   116   1 H        0.798     0.338     0.619     1.237
   117   8 O        1.596    -0.648    26.371     6.930
   118   1 H        0.798     0.327     0.645     1.262
   119   1 H        0.798     0.318     0.671     1.288
   120   8 O        1.596    -0.643    26.238     6.913
   121   1 H        0.798     0.331     0.635     1.252
   122   1 H        0.798     0.326     0.649     1.266
   123   8 O        1.596    -0.653    26.511     6.949
   124   1 H        0.798     0.329     0.642     1.259
   125   1 H        0.797     0.263     0.846     1.446
   126   8 O        1.595    -0.599    25.175     6.771
   127   1 H        0.798     0.318     0.671     1.287
   128   1 H        0.797     0.340     0.613     1.230
   129   8 O        1.595    -0.655    26.556     6.955
   130   1 H        0.798     0.313     0.683     1.299
   131   1 H        0.797     0.327     0.646     1.263
   132   8 O        1.595    -0.555    24.136     6.630
   133   1 H        0.798     0.327     0.647     1.264
   134   1 H        0.797     0.284     0.773     1.381
   135   8 O        1.595    -0.613    25.520     6.818
   136   1 H        0.798     0.313     0.685     1.300
   137   1 H        0.797     0.340     0.613     1.230
   138   8 O        1.595    -0.654    26.539     6.952
   139   1 H        0.798     0.276     0.799     1.404
   140   1 H        0.797     0.333     0.631     1.248
   141   8 O        1.595    -0.608    25.398     6.801
   142   1 H        0.798     0.287     0.762     1.372
   143   1 H        0.797     0.306     0.706     1.320
   144   8 O        1.595    -0.689    27.435     7.069
   145   1 H        0.798     0.320     0.665     1.282
   146   1 H        0.797     0.341     0.611     1.229
   147   8 O        1.595    -0.656    26.574     6.957
   148   1 H        0.798     0.276     0.800     1.406
   149   1 H        0.797     0.334     0.629     1.246
   150   8 O        1.595    -0.608    25.399     6.801
   151   1 H        0.798     0.234     0.959     1.539
   152   1 H        0.797     0.325     0.652     1.269
   153   8 O        1.595    -0.613    25.516     6.817
   154   1 H        0.798     0.291     0.750     1.361
   155   1 H        0.798     0.348     0.595     1.212
   156   8 O        1.596    -0.600    25.186     6.773
   157   1 H        0.798     0.327     0.645     1.262
   158   1 H        0.798     0.327     0.645     1.262
   159   8 O        1.596    -0.652    26.480     6.945
   160   1 H        0.798     0.308     0.699     1.314
   161   1 H        0.798     0.308     0.699     1.314
   162   8 O        1.595    -0.645    26.302     6.921
   163   1 H        0.798     0.310     0.692     1.307
   164   1 H        0.798     0.310     0.692     1.307
   165   8 O        1.595    -0.660    26.669     6.969
   166   1 H        0.798     0.315     0.680     1.296
   167   1 H        0.798     0.315     0.680     1.296
   168   8 O        1.595    -0.671    26.956     7.007
   169   1 H        0.798     0.329     0.640     1.257
   170   1 H        0.798     0.329     0.640     1.257
   171   8 O        1.596    -0.654    26.532     6.951
   172   1 H        0.798     0.348     0.595     1.212
   173   1 H        0.798     0.291     0.750     1.361
   174   8 O        1.596    -0.600    25.186     6.773
   175   1 H        0.798     0.314     0.681     1.297
   176   1 H        0.797     0.294     0.741     1.353
   177   8 O        1.595    -0.606    25.339     6.793
   178   1 H        0.798     0.270     0.822     1.425
   179   1 H        0.797     0.333     0.631     1.249
   180   8 O        1.595    -0.604    25.289     6.787
   181   1 H        0.798     0.337     0.620     1.237
   182   1 H        0.797     0.298     0.728     1.341
   183   8 O        1.595    -0.597    25.132     6.766
   184   1 H        0.798     0.318     0.670     1.286
   185   1 H        0.797     0.332     0.633     1.251
   186   8 O        1.595    -0.649    26.404     6.935
   187   1 H        0.798     0.319     0.667     1.283
   188   1 H        0.797     0.339     0.615     1.233
   189   8 O        1.595    -0.660    26.690     6.972
   190   1 H        0.798     0.313     0.685     1.301
   191   1 H        0.797     0.347     0.595     1.213
   192   8 O        1.595    -0.661    26.699     6.973
   193   1 H        0.798     0.314     0.681     1.297
   194   1 H        0.797     0.294     0.741     1.353
   195   8 O        1.595    -0.606    25.339     6.793
   196   1 H        0.798     0.270     0.822     1.425
   197   1 H        0.797     0.333     0.631     1.249
   198   8 O        1.595    -0.604    25.289     6.787
   199   1 H        0.798     0.343     0.606     1.223
   200   1 H        0.798     0.286     0.765     1.375
   201   8 O        1.596    -0.595    25.068     6.757
   202   1 H        0.798     0.326     0.649     1.266
   203   1 H        0.798     0.327     0.646     1.263
   204   8 O        1.596    -0.650    26.424     6.937
   205   1 H        0.798     0.303     0.713     1.327
   206   1 H        0.798     0.342     0.609     1.226
   207   8 O        1.596    -0.602    25.249     6.781
   208   1 H        0.798     0.319     0.667     1.284
   209   1 H        0.798     0.301     0.720     1.334
   210   8 O        1.595    -0.663    26.754     6.980
   211   1 H        0.798     0.305     0.706     1.321
   212   1 H        0.798     0.344     0.604     1.222
   213   8 O        1.596    -0.609    25.411     6.803
   214   1 H        0.798     0.330     0.638     1.255
   215   1 H        0.798     0.319     0.668     1.285
   216   8 O        1.596    -0.643    26.252     6.915
   217   1 H        0.798     0.322     0.661     1.277
   218   1 H        0.798     0.335     0.626     1.243
   219   8 O        1.596    -0.652    26.469     6.943
   220   1 H        0.798     0.280     0.784     1.392
   221   1 H        0.797     0.309     0.697     1.312
   222   8 O        1.595    -0.679    27.157     7.033
   223   1 H        0.798     0.256     0.872     1.467
   224   1 H        0.797     0.345     0.602     1.219
   225   8 O        1.595    -0.606    25.331     6.792
   226   1 H        0.798     0.313     0.683     1.299
   227   1 H        0.797     0.338     0.618     1.235
   228   8 O        1.595    -0.652    26.486     6.945
   229   1 H        0.798     0.311     0.689     1.304
   230   1 H        0.797     0.342     0.609     1.227
   231   8 O        1.595    -0.652    26.470     6.943
   232   1 H        0.798     0.308     0.699     1.313
   233   1 H        0.797     0.346     0.599     1.217
   234   8 O        1.595    -0.653    26.503     6.948
   235   1 H        0.798     0.312     0.688     1.303
   236   1 H        0.797     0.342     0.608     1.226
   237   8 O        1.595    -0.656    26.588     6.959
   238   1 H        0.798     0.333     0.630     1.247
   239   1 H        0.797     0.296     0.734     1.346
   240   8 O        1.595    -0.593    25.031     6.752
   241   1 H        0.798     0.310     0.693     1.308
   242   1 H        0.797     0.328     0.645     1.262
   243   8 O        1.595    -0.553    24.104     6.626
   244   1 H        0.798     0.301     0.720     1.334
   245   1 H        0.798     0.319     0.667     1.284
   246   8 O        1.595    -0.663    26.754     6.980
   247   1 H        0.798     0.344     0.604     1.222
   248   1 H        0.798     0.305     0.706     1.321
   249   8 O        1.596    -0.609    25.411     6.803
   250   1 H        0.798     0.319     0.668     1.285
   251   1 H        0.798     0.330     0.638     1.255
   252   8 O        1.596    -0.643    26.252     6.915
   253   1 H        0.798     0.335     0.626     1.243
   254   1 H        0.798     0.322     0.661     1.277
   255   8 O        1.596    -0.652    26.469     6.943
   256   1 H        0.798     0.286     0.765     1.375
   257   1 H        0.798     0.343     0.606     1.223
   258   8 O        1.596    -0.595    25.068     6.757
   259   1 H        0.798     0.327     0.646     1.263
   260   1 H        0.798     0.326     0.649     1.266
   261   8 O        1.596    -0.650    26.424     6.937
   262   1 H        0.798     0.342     0.609     1.226
   263   1 H        0.798     0.303     0.713     1.327
   264   8 O        1.596    -0.602    25.249     6.781
   265   1 H        0.798     0.308     0.699     1.313
   266   1 H        0.797     0.346     0.599     1.217
   267   8 O        1.595    -0.653    26.503     6.948
   268   1 H        0.798     0.312     0.688     1.303
   269   1 H        0.797     0.342     0.608     1.226
   270   8 O        1.595    -0.656    26.588     6.959
   271   1 H        0.798     0.333     0.630     1.247
   272   1 H        0.797     0.296     0.734     1.346
   273   8 O        1.595    -0.593    25.031     6.752
   274   1 H        0.798     0.310     0.693     1.308
   275   1 H        0.797     0.328     0.645     1.262
   276   8 O        1.595    -0.553    24.104     6.626
   277   1 H        0.798     0.280     0.784     1.392
   278   1 H        0.797     0.309     0.697     1.312
   279   8 O        1.595    -0.679    27.157     7.033
   280   1 H        0.798     0.256     0.872     1.467
   281   1 H        0.797     0.345     0.602     1.219
   282   8 O        1.595    -0.606    25.331     6.792
   283   1 H        0.798     0.313     0.683     1.299
   284   1 H        0.797     0.338     0.618     1.235
   285   8 O        1.595    -0.652    26.486     6.945
   286   1 H        0.798     0.311     0.689     1.304
   287   1 H        0.797     0.342     0.609     1.227
   288   8 O        1.595    -0.652    26.470     6.943

 Mol. C6AA /au·bohr⁶  :     416240.555055
 Mol. C8AA /au·bohr⁸  :    7503846.780777
 Mol. α(0) /au        :        908.847864


Wiberg/Mayer (AO) data.
largest (>0.10) Wiberg bond orders for each atom

 ---------------------------------------------------------------------------
     #   Z sym  total        # sym  WBO       # sym  WBO       # sym  WBO
 ---------------------------------------------------------------------------
     1   1 H    0.885 --     3 O    0.805
     2   1 H    0.913 --     3 O    0.908
     3   8 O    1.942 --     2 H    0.908     1 H    0.805
     4   1 H    0.896 --     6 O    0.824
     5   1 H    0.940 --     6 O    0.939
     6   8 O    1.800 --     5 H    0.939     4 H    0.824
     7   1 H    0.893 --     9 O    0.820
     8   1 H    0.923 --     9 O    0.920
     9   8 O    1.877 --     8 H    0.920     7 H    0.820
    10   1 H    0.902 --    12 O    0.897
    11   1 H    0.902 --    12 O    0.897
    12   8 O    1.969 --    10 H    0.897    11 H    0.897
    13   1 H    0.893 --    15 O    0.820
    14   1 H    0.893 --    15 O    0.820
    15   8 O    1.915 --    14 H    0.820    13 H    0.820
    16   1 H    0.901 --    18 O    0.833
    17   1 H    0.901 --    18 O    0.833
    18   8 O    1.854 --    16 H    0.833    17 H    0.833
    19   1 H    0.913 --    21 O    0.853
    20   1 H    0.913 --    21 O    0.853
    21   8 O    1.774 --    19 H    0.853    20 H    0.853
    22   1 H    0.904 --    24 O    0.842
    23   1 H    0.904 --    24 O    0.842
    24   8 O    1.861 --    22 H    0.842    23 H    0.842
    25   1 H    0.913 --    27 O    0.908
    26   1 H    0.885 --    27 O    0.805
    27   8 O    1.942 --    25 H    0.908    26 H    0.805
    28   1 H    0.940 --    30 O    0.939
    29   1 H    0.896 --    30 O    0.824
    30   8 O    1.800 --    28 H    0.939    29 H    0.824
    31   1 H    0.923 --    33 O    0.920
    32   1 H    0.893 --    33 O    0.820
    33   8 O    1.877 --    31 H    0.920    32 H    0.820
    34   1 H    0.912 --    36 O    0.850
    35   1 H    0.895 --    36 O    0.824
    36   8 O    1.859 --    34 H    0.850    35 H    0.824
    37   1 H    0.900 --    39 O    0.828
    38   1 H    0.913 --    39 O    0.911
    39   8 O    1.879 --    38 H    0.911    37 H    0.828
    40   1 H    0.927 --    42 O    0.875
    41   1 H    0.902 --    42 O    0.833
    42   8 O    1.778 --    40 H    0.875    41 H    0.833
    43   1 H    0.899 --    45 O    0.829
    44   1 H    0.889 --    45 O    0.808
    45   8 O    1.914 --    43 H    0.829    44 H    0.808
    46   1 H    0.919 --    48 O    0.914
    47   1 H    0.872 --    48 O    0.780
    48   8 O    1.931 --    46 H    0.914    47 H    0.780
    49   1 H    0.889 --    51 O    0.809
    50   1 H    0.906 --    51 O    0.902
    51   8 O    1.940 --    50 H    0.902    49 H    0.809
    52   1 H    0.912 --    54 O    0.850
    53   1 H    0.895 --    54 O    0.824
    54   8 O    1.859 --    52 H    0.850    53 H    0.824
    55   1 H    0.900 --    57 O    0.828
    56   1 H    0.913 --    57 O    0.911
    57   8 O    1.879 --    56 H    0.911    55 H    0.828
    58   1 H    0.899 --    60 O    0.828
    59   1 H    0.893 --    60 O    0.817
    60   8 O    1.919 --    58 H    0.828    59 H    0.817
    61   1 H    0.894 --    63 O    0.819
    62   1 H    0.890 --    63 O    0.815
    63   8 O    1.916 --    61 H    0.819    62 H    0.815
    64   1 H    0.899 --    66 O    0.830
    65   1 H    0.888 --    66 O    0.811
    66   8 O    1.916 --    64 H    0.830    65 H    0.811
    67   1 H    0.892 --    69 O    0.817
    68   1 H    0.890 --    69 O    0.813
    69   8 O    1.914 --    67 H    0.817    68 H    0.813
    70   1 H    0.887 --    72 O    0.809
    71   1 H    0.898 --    72 O    0.829
    72   8 O    1.920 --    71 H    0.829    70 H    0.809
    73   1 H    0.886 --    75 O    0.808
    74   1 H    0.900 --    75 O    0.835
    75   8 O    1.916 --    74 H    0.835    73 H    0.808
    76   1 H    0.917 --    78 O    0.857
    77   1 H    0.907 --    78 O    0.834
    78   8 O    1.763 --    76 H    0.857    77 H    0.834
    79   1 H    0.898 --    81 O    0.825
    80   1 H    0.884 --    81 O    0.808
    81   8 O    1.914 --    79 H    0.825    80 H    0.808
    82   1 H    0.924 --    84 O    0.922
    83   1 H    0.889 --    84 O    0.812
    84   8 O    1.881 --    82 H    0.922    83 H    0.812
    85   1 H    0.945 --    87 O    0.944
    86   1 H    0.895 --    87 O    0.820
    87   8 O    1.802 --    85 H    0.944    86 H    0.820
    88   1 H    0.892 --    90 O    0.817
    89   1 H    0.931 --    90 O    0.929
    90   8 O    1.875 --    89 H    0.929    88 H    0.817
    91   1 H    0.899 --    93 O    0.828
    92   1 H    0.884 --    93 O    0.805
    93   8 O    1.914 --    91 H    0.828    92 H    0.805
    94   1 H    0.902 --    96 O    0.897
    95   1 H    0.893 --    96 O    0.889
    96   8 O    1.965 --    94 H    0.897    95 H    0.889
    97   1 H    0.893 --    99 O    0.820
    98   1 H    0.919 --    99 O    0.917
    99   8 O    1.872 --    98 H    0.917    97 H    0.820
   100   1 H    0.902 --   102 O    0.833
   101   1 H    0.884 --   102 O    0.803
   102   8 O    1.909 --   100 H    0.833   101 H    0.803
   103   1 H    0.924 --   105 O    0.921
   104   1 H    0.889 --   105 O    0.814
   105   8 O    1.879 --   103 H    0.921   104 H    0.814
   106   1 H    0.888 --   108 O    0.811
   107   1 H    0.899 --   108 O    0.830
   108   8 O    1.916 --   107 H    0.830   106 H    0.811
   109   1 H    0.890 --   111 O    0.813
   110   1 H    0.892 --   111 O    0.817
   111   8 O    1.914 --   110 H    0.817   109 H    0.813
   112   1 H    0.898 --   114 O    0.829
   113   1 H    0.887 --   114 O    0.809
   114   8 O    1.920 --   112 H    0.829   113 H    0.809
   115   1 H    0.900 --   117 O    0.835
   116   1 H    0.886 --   117 O    0.808
   117   8 O    1.916 --   115 H    0.835   116 H    0.808
   118   1 H    0.893 --   120 O    0.817
   119   1 H    0.899 --   120 O    0.828
   120   8 O    1.919 --   119 H    0.828   118 H    0.817
   121   1 H    0.890 --   123 O    0.815
   122   1 H    0.894 --   123 O    0.819
   123   8 O    1.916 --   122 H    0.819   121 H    0.815
   124   1 H    0.892 --   126 O    0.817
   125   1 H    0.931 --   126 O    0.929
   126   8 O    1.875 --   125 H    0.929   124 H    0.817
   127   1 H    0.899 --   129 O    0.828
   128   1 H    0.884 --   129 O    0.805
   129   8 O    1.914 --   127 H    0.828   128 H    0.805
   130   1 H    0.902 --   132 O    0.897
   131   1 H    0.893 --   132 O    0.889
   132   8 O    1.965 --   130 H    0.897   131 H    0.889
   133   1 H    0.893 --   135 O    0.820
   134   1 H    0.919 --   135 O    0.917
   135   8 O    1.872 --   134 H    0.917   133 H    0.820
   136   1 H    0.902 --   138 O    0.833
   137   1 H    0.884 --   138 O    0.803
   138   8 O    1.909 --   136 H    0.833   137 H    0.803
   139   1 H    0.924 --   141 O    0.921
   140   1 H    0.889 --   141 O    0.814
   141   8 O    1.879 --   139 H    0.921   140 H    0.814
   142   1 H    0.917 --   144 O    0.857
   143   1 H    0.907 --   144 O    0.834
   144   8 O    1.763 --   142 H    0.857   143 H    0.834
   145   1 H    0.898 --   147 O    0.825
   146   1 H    0.884 --   147 O    0.808
   147   8 O    1.914 --   145 H    0.825   146 H    0.808
   148   1 H    0.924 --   150 O    0.922
   149   1 H    0.889 --   150 O    0.812
   150   8 O    1.881 --   148 H    0.922   149 H    0.812
   151   1 H    0.945 --   153 O    0.944
   152   1 H    0.895 --   153 O    0.820
   153   8 O    1.802 --   151 H    0.944   152 H    0.820
   154   1 H    0.915 --   156 O    0.911
   155   1 H    0.879 --   156 O    0.797
   156   8 O    1.938 --   154 H    0.911   155 H    0.797
   157   1 H    0.893 --   159 O    0.819
   158   1 H    0.893 --   159 O    0.819
   159   8 O    1.914 --   157 H    0.819   158 H    0.819
   160   1 H    0.905 --   162 O    0.844
   161   1 H    0.905 --   162 O    0.844
   162   8 O    1.860 --   160 H    0.844   161 H    0.844
   163   1 H    0.904 --   165 O    0.835
   164   1 H    0.904 --   165 O    0.835
   165   8 O    1.853 --   163 H    0.835   164 H    0.835
   166   1 H    0.901 --   168 O    0.833
   167   1 H    0.901 --   168 O    0.833
   168   8 O    1.841 --   167 H    0.833   166 H    0.833
   169   1 H    0.891 --   171 O    0.814
   170   1 H    0.891 --   171 O    0.814
   171   8 O    1.920 --   170 H    0.814   169 H    0.814
   172   1 H    0.879 --   174 O    0.797
   173   1 H    0.915 --   174 O    0.911
   174   8 O    1.938 --   173 H    0.911   172 H    0.797
   175   1 H    0.901 --   177 O    0.835
   176   1 H    0.914 --   177 O    0.912
   177   8 O    1.878 --   176 H    0.912   175 H    0.835
   178   1 H    0.927 --   180 O    0.925
   179   1 H    0.889 --   180 O    0.815
   180   8 O    1.879 --   178 H    0.925   179 H    0.815
   181   1 H    0.886 --   183 O    0.807
   182   1 H    0.911 --   183 O    0.907
   183   8 O    1.938 --   182 H    0.907   181 H    0.807
   184   1 H    0.899 --   186 O    0.822
   185   1 H    0.890 --   186 O    0.818
   186   8 O    1.915 --   184 H    0.822   185 H    0.818
   187   1 H    0.898 --   189 O    0.822
   188   1 H    0.885 --   189 O    0.804
   189   8 O    1.911 --   187 H    0.822   188 H    0.804
   190   1 H    0.902 --   192 O    0.832
   191   1 H    0.879 --   192 O    0.794
   192   8 O    1.910 --   190 H    0.832   191 H    0.794
   193   1 H    0.901 --   195 O    0.835
   194   1 H    0.914 --   195 O    0.912
   195   8 O    1.878 --   194 H    0.912   193 H    0.835
   196   1 H    0.927 --   198 O    0.925
   197   1 H    0.889 --   198 O    0.815
   198   8 O    1.879 --   196 H    0.925   197 H    0.815
   199   1 H    0.882 --   201 O    0.798
   200   1 H    0.918 --   201 O    0.913
   201   8 O    1.939 --   200 H    0.913   199 H    0.798
   202   1 H    0.894 --   204 O    0.819
   203   1 H    0.893 --   204 O    0.820
   204   8 O    1.916 --   203 H    0.820   202 H    0.819
   205   1 H    0.908 --   207 O    0.904
   206   1 H    0.883 --   207 O    0.803
   207   8 O    1.941 --   205 H    0.904   206 H    0.803
   208   1 H    0.898 --   210 O    0.825
   209   1 H    0.910 --   210 O    0.845
   210   8 O    1.846 --   209 H    0.845   208 H    0.825
   211   1 H    0.907 --   213 O    0.902
   212   1 H    0.882 --   213 O    0.802
   213   8 O    1.933 --   211 H    0.902   212 H    0.802
   214   1 H    0.891 --   216 O    0.818
   215   1 H    0.898 --   216 O    0.831
   216   8 O    1.917 --   215 H    0.831   214 H    0.818
   217   1 H    0.897 --   219 O    0.827
   218   1 H    0.888 --   219 O    0.809
   219   8 O    1.917 --   217 H    0.827   218 H    0.809
   220   1 H    0.921 --   222 O    0.865
   221   1 H    0.905 --   222 O    0.835
   222   8 O    1.770 --   220 H    0.865   221 H    0.835
   223   1 H    0.934 --   225 O    0.932
   224   1 H    0.881 --   225 O    0.798
   225   8 O    1.877 --   223 H    0.932   224 H    0.798
   226   1 H    0.902 --   228 O    0.831
   227   1 H    0.886 --   228 O    0.805
   228   8 O    1.913 --   226 H    0.831   227 H    0.805
   229   1 H    0.903 --   231 O    0.835
   230   1 H    0.883 --   231 O    0.802
   231   8 O    1.913 --   229 H    0.835   230 H    0.802
   232   1 H    0.905 --   234 O    0.840
   233   1 H    0.880 --   234 O    0.796
   234   8 O    1.911 --   232 H    0.840   233 H    0.796
   235   1 H    0.903 --   237 O    0.834
   236   1 H    0.883 --   237 O    0.800
   237   8 O    1.907 --   235 H    0.834   236 H    0.800
   238   1 H    0.889 --   240 O    0.812
   239   1 H    0.912 --   240 O    0.908
   240   8 O    1.938 --   239 H    0.908   238 H    0.812
   241   1 H    0.904 --   243 O    0.899
   242   1 H    0.893 --   243 O    0.888
   243   8 O    1.964 --   241 H    0.899   242 H    0.888
   244   1 H    0.910 --   246 O    0.845
   245   1 H    0.898 --   246 O    0.825
   246   8 O    1.846 --   244 H    0.845   245 H    0.825
   247   1 H    0.882 --   249 O    0.802
   248   1 H    0.907 --   249 O    0.902
   249   8 O    1.933 --   248 H    0.902   247 H    0.802
   250   1 H    0.898 --   252 O    0.831
   251   1 H    0.891 --   252 O    0.818
   252   8 O    1.917 --   250 H    0.831   251 H    0.818
   253   1 H    0.888 --   255 O    0.809
   254   1 H    0.897 --   255 O    0.827
   255   8 O    1.917 --   254 H    0.827   253 H    0.809
   256   1 H    0.918 --   258 O    0.913
   257   1 H    0.882 --   258 O    0.798
   258   8 O    1.939 --   256 H    0.913   257 H    0.798
   259   1 H    0.893 --   261 O    0.820
   260   1 H    0.894 --   261 O    0.819
   261   8 O    1.916 --   259 H    0.820   260 H    0.819
   262   1 H    0.883 --   264 O    0.803
   263   1 H    0.908 --   264 O    0.904
   264   8 O    1.941 --   263 H    0.904   262 H    0.803
   265   1 H    0.905 --   267 O    0.840
   266   1 H    0.880 --   267 O    0.796
   267   8 O    1.911 --   265 H    0.840   266 H    0.796
   268   1 H    0.903 --   270 O    0.834
   269   1 H    0.883 --   270 O    0.800
   270   8 O    1.907 --   268 H    0.834   269 H    0.800
   271   1 H    0.889 --   273 O    0.812
   272   1 H    0.912 --   273 O    0.908
   273   8 O    1.938 --   272 H    0.908   271 H    0.812
   274   1 H    0.904 --   276 O    0.899
   275   1 H    0.893 --   276 O    0.888
   276   8 O    1.964 --   274 H    0.899   275 H    0.888
   277   1 H    0.921 --   279 O    0.865
   278   1 H    0.905 --   279 O    0.835
   279   8 O    1.770 --   277 H    0.865   278 H    0.835
   280   1 H    0.934 --   282 O    0.932
   281   1 H    0.881 --   282 O    0.798
   282   8 O    1.877 --   280 H    0.932   281 H    0.798
   283   1 H    0.902 --   285 O    0.831
   284   1 H    0.886 --   285 O    0.805
   285   8 O    1.913 --   283 H    0.831   284 H    0.805
   286   1 H    0.903 --   288 O    0.835
   287   1 H    0.883 --   288 O    0.802
   288   8 O    1.913 --   286 H    0.835   287 H    0.802
 ---------------------------------------------------------------------------

Topologies differ in total number of bonds
Writing topology from bond orders to xtbtopo.mol

molecular dipole:
                 x           y           z       tot (Debye)
 q only:        2.184      -3.783      49.894
   full:        2.872      -4.974      62.508     159.548
molecular quadrupole (traceless):
                xx          xy          yy          xz          yz          zz
 q only:      -45.269      16.799     -64.667    -181.911     315.078     109.936
  q+dip:      -57.703      27.758     -89.755    -231.009     400.119     147.458
   full:      -58.609      28.470     -91.483    -230.693     399.572     150.092


           -------------------------------------------------
          | TOTAL ENERGY             -487.952778702780 Eh   |
          | GRADIENT NORM               0.492839337075 Eh/α |
          | HOMO-LUMO GAP               0.889236975310 eV   |
           -------------------------------------------------
########################################################################
[WARNING] Runtime exception occurred
-2- restart_readRestart: Dimension missmatch in restart file.
-1- restart_readRestart: Number of electron missmatch in restart file.
########################################################################

------------------------------------------------------------------------
 * finished run on 2025/07/06 at 13:14:07.762     
------------------------------------------------------------------------
 total:
 * wall-time:     0 d,  0 h,  0 min,  1.369 sec
 *  cpu-time:     0 d,  0 h,  0 min,  1.367 sec
 * ratio c/w:     0.999 speedup
 SCF:
 * wall-time:     0 d,  0 h,  0 min,  1.301 sec
 *  cpu-time:     0 d,  0 h,  0 min,  1.301 sec
 * ratio c/w:     1.000 speedup

