      -----------------------------------------------------------      
     |                   =====================                   |     
     |                           x T B                           |     
     |                   =====================                   |     
     |                         S. Grimme                         |     
     |          Mulliken Center for Theoretical Chemistry        |     
     |                    University of Bonn                     |     
      -----------------------------------------------------------      

   * xtb version 6.7.1 (unknown) compiled by 'runner@Mac-1732184002186.local' on 2024-11-21

   xtb is free software: you can redistribute it and/or modify it under
   the terms of the GNU Lesser General Public License as published by
   the Free Software Foundation, either version 3 of the License, or
   (at your option) any later version.
   
   xtb is distributed in the hope that it will be useful,
   but WITHOUT ANY WARRANTY; without even the implied warranty of
   MERCHANTABILITY or FITNESS FOR A PARTICULAR PURPOSE.  See the
   GNU Lesser General Public License for more details.
   
   Cite this work as:
   * C. Bannwarth, E. Caldeweyher, S. Ehlert, A. Hansen, P. Pracht,
     J. Seibert, S. Spicher, S. Grimme, WIREs Comput. Mol. Sci., 2020, 11,
     e01493. DOI: 10.1002/wcms.1493
   
   for GFN2-xTB:
   * C. Bannwarth, S. Ehlert and S. Grimme., J. Chem. Theory Comput., 2019,
     15, 1652-1671. DOI: 10.1021/acs.jctc.8b01176
   for GFN1-xTB:
   * S. Grimme, C. Bannwarth, P. Shushkov, J. Chem. Theory Comput., 2017,
     13, 1989-2009. DOI: 10.1021/acs.jctc.7b00118
   for GFN0-xTB:
   * P. Pracht, E. Caldeweyher, S. Ehlert, S. Grimme, ChemRxiv, 2019, preprint.
     DOI: 10.26434/chemrxiv.8326202.v1
   for GFN-FF:
   * S. Spicher and S. Grimme, Angew. Chem. Int. Ed., 2020, 59, 15665-15673.
     DOI: 10.1002/anie.202004239
   
   for ALPB and GBSA implicit solvation:
   * S. Ehlert, M. Stahn, S. Spicher, S. Grimme, J. Chem. Theory Comput.,
     2021, 17, 4250-4261. DOI: 10.1021/acs.jctc.1c00471
   
   for ddCOSMO and CPCM-X implicit solvation:
   * M. Stahn, S. Ehlert, S. Grimme, J. Phys. Chem. A,
     2023, XX, XXXX-XXXX. DOI: 10.1021/acs.jpca.3c04382
   
   for DFT-D4:
   * E. Caldeweyher, C. Bannwarth and S. Grimme, J. Chem. Phys., 2017,
     147, 034112. DOI: 10.1063/1.4993215
   * E. Caldeweyher, S. Ehlert, A. Hansen, H. Neugebauer, S. Spicher,
     C. Bannwarth and S. Grimme, J. Chem. Phys., 2019, 150, 154122.
     DOI: 10.1063/1.5090222
   * E. Caldeweyher, J.-M. Mewes, S. Ehlert and S. Grimme, Phys. Chem. Chem. Phys.
     2020, 22, 8499-8512. DOI: 10.1039/D0CP00502A
   
   for sTDA-xTB:
   * S. Grimme and C. Bannwarth, J. Chem. Phys., 2016, 145, 054103.
     DOI: 10.1063/1.4959605
   
   in the mass-spec context:
   * V. Asgeirsson, C. Bauer and S. Grimme, Chem. Sci., 2017, 8, 4879.
     DOI: 10.1039/c7sc00601b
   * J. Koopman and S. Grimme, ACS Omega 2019, 4, 12, 15120-15133.
     DOI: 10.1021/acsomega.9b02011
   
   for metadynamics refer to:
   * S. Grimme, J. Chem. Theory Comput., 2019, 155, 2847-2862
     DOI: 10.1021/acs.jctc.9b00143
   
   for SPH calculations refer to:
   * S. Spicher and S. Grimme, J. Chem. Theory Comput., 2021, 17, 1701-1714
     DOI: 10.1021/acs.jctc.0c01306
   
   for ONIOM refer to:
   * C. Plett, A. Katbashev, S. Ehlert, S. Grimme, M. Bursch,
     Phys. Chem. Chem. Phys., 2023, 25, 17860-17868. DOI: 10.1039/D3CP02178E
   
   for DIPRO refer to:
   * J. Kohn, N. Gildemeister, S. Grimme, D. Fazzi, A. Hansen,
     J. Chem. Phys., 2023, just accepted.
   
   for PTB refer to:
   * S. Grimme, M. Mueller, A. Hansen, J. Chem. Phys., 2023, 158, 124111.
     DOI: 10.1063/5.0137838
   
   with help from (in alphabetical order)
   P. Atkinson, C. Bannwarth, F. Bohle, G. Brandenburg, E. Caldeweyher
   M. Checinski, S. Dohm, S. Ehlert, S. Ehrlich, I. Gerasimov, C. Hölzer
   A. Katbashev, J. Kohn, J. Koopman, C. Lavigne, S. Lehtola, F. März, M. Müller,
   F. Musil, H. Neugebauer, J. Pisarek, C. Plett, P. Pracht, F. Pultar,
   J. Seibert, P. Shushkov, S. Spicher, M. Stahn, M. Steiner, T. Strunk,
   J. Stückrath, T. Rose, and J. Unsleber
   
 * started run on 2025/07/06 at 17:07:26.870     
   ID    Z sym.   atoms
    1    1 H      1, 2
    2    8 O      3

           -------------------------------------------------
          |                Calculation Setup                |
           -------------------------------------------------

          program call               : xtb ice_central_molecule.xyz --gfn2
          coordinate file            : ice_central_molecule.xyz
          omp threads                :                     1


           -------------------------------------------------
          |                 G F N 2 - x T B                 |
           -------------------------------------------------

        Reference                      10.1021/acs.jctc.8b01176
      * Hamiltonian:
        H0-scaling (s, p, d)           1.850000    2.230000    2.230000
        zeta-weighting                 0.500000
      * Dispersion:
        s8                             2.700000
        a1                             0.520000
        a2                             5.000000
        s9                             5.000000
      * Repulsion:
        kExp                           1.500000    1.000000
        rExp                           1.000000
      * Coulomb:
        alpha                          2.000000
        third order                    shell-resolved
        anisotropic                    true
        a3                             3.000000
        a5                             4.000000
        cn-shift                       1.200000
        cn-exp                         4.000000
        max-rad                        5.000000


          ...................................................
          :                      SETUP                      :
          :.................................................:
          :  # basis functions                   6          :
          :  # atomic orbitals                   6          :
          :  # shells                            4          :
          :  # electrons                         8          :
          :  max. iterations                   250          :
          :  Hamiltonian                  GFN2-xTB          :
          :  restarted?                      false          :
          :  GBSA solvation                  false          :
          :  PC potential                    false          :
          :  electronic temp.          300.0000000     K    :
          :  accuracy                    1.0000000          :
          :  -> integral cutoff          0.2500000E+02      :
          :  -> integral neglect         0.1000000E-07      :
          :  -> SCF convergence          0.1000000E-05 Eh   :
          :  -> wf. convergence          0.1000000E-03 e    :
          :  Broyden damping             0.4000000          :
          :  net charge                          0          :
          :  unpaired electrons                  0          :
          ...................................................

 iter      E             dE          RMSdq      gap      omega  full diag
   1     -5.0864176 -0.508642E+01  0.410E+00   12.94       0.0  T
   2     -5.0885296 -0.211193E-02  0.228E+00   12.57       1.0  T
   3     -5.0888081 -0.278511E-03  0.457E-01   12.32       1.0  T
   4     -5.0888801 -0.720686E-04  0.845E-02   12.47       1.0  T
   5     -5.0888817 -0.151189E-05  0.627E-02   12.42       1.0  T
   6     -5.0888847 -0.308649E-05  0.112E-03   12.45      51.7  T
   7     -5.0888847  0.631402E-09  0.104E-03   12.45      55.4  T
   8     -5.0888847 -0.828169E-09  0.289E-05   12.45    1999.5  T
   9     -5.0888847 -0.608402E-12  0.480E-06   12.45   12022.7  T

   *** convergence criteria satisfied after 9 iterations ***

         #    Occupation            Energy/Eh            Energy/eV
      -------------------------------------------------------------
         1        2.0000           -0.6732046             -18.3188
         2        2.0000           -0.5632590             -15.3271
         3        2.0000           -0.5098289             -13.8731
         4        2.0000           -0.4440069             -12.0820 (HOMO)
         5                          0.0133939               0.3645 (LUMO)
         6                          0.1607160               4.3733
      -------------------------------------------------------------
                  HL-Gap            0.4574008 Eh           12.4465 eV
             Fermi-level           -0.2153065 Eh           -5.8588 eV

 SCC (total)                   0 d,  0 h,  0 min,  0.002 sec
 SCC setup                      ...        0 min,  0.000 sec (  8.122%)
 Dispersion                     ...        0 min,  0.000 sec (  2.711%)
 classical contributions        ...        0 min,  0.000 sec (  1.057%)
 integral evaluation            ...        0 min,  0.000 sec (  5.924%)
 iterations                     ...        0 min,  0.002 sec ( 72.127%)
 molecular gradient             ...        0 min,  0.000 sec (  6.008%)
 printout                       ...        0 min,  0.000 sec (  3.632%)

         :::::::::::::::::::::::::::::::::::::::::::::::::::::
         ::                     SUMMARY                     ::
         :::::::::::::::::::::::::::::::::::::::::::::::::::::
         :: total energy              -5.067033098113 Eh    ::
         :: gradient norm              0.065845930006 Eh/a0 ::
         :: HOMO-LUMO gap             12.446510359095 eV    ::
         ::.................................................::
         :: SCC energy                -5.088884746081 Eh    ::
         :: -> isotropic ES            0.031428677357 Eh    ::
         :: -> anisotropic ES          0.000834656671 Eh    ::
         :: -> anisotropic XC         -0.000310558625 Eh    ::
         :: -> dispersion             -0.000142289333 Eh    ::
         :: repulsion energy           0.021851647968 Eh    ::
         :: add. restraining           0.000000000000 Eh    ::
         :: total charge              -0.000000000000 e     ::
         :::::::::::::::::::::::::::::::::::::::::::::::::::::

           -------------------------------------------------
          |                Property Printout                |
           -------------------------------------------------

    * Orbital Energies and Occupations

         #    Occupation            Energy/Eh            Energy/eV
      -------------------------------------------------------------
         1        2.0000           -0.6732046             -18.3188
         2        2.0000           -0.5632590             -15.3271
         3        2.0000           -0.5098289             -13.8731
         4        2.0000           -0.4440069             -12.0820 (HOMO)
         5                          0.0133939               0.3645 (LUMO)
         6                          0.1607160               4.3733
      -------------------------------------------------------------
                  HL-Gap            0.4574008 Eh           12.4465 eV
             Fermi-level           -0.2153065 Eh           -5.8588 eV

     #   Z          covCN         q      C6AA      α(0)
     1   1 H        0.798     0.277     0.795     1.401
     2   1 H        0.797     0.277     0.795     1.401
     3   8 O        1.595    -0.555    24.140     6.631

 Mol. C6AA /au·bohr⁶  :         44.513378
 Mol. C8AA /au·bohr⁸  :        794.140184
 Mol. α(0) /au        :          9.432826


Wiberg/Mayer (AO) data.
largest (>0.10) Wiberg bond orders for each atom

 ---------------------------------------------------------------------------
     #   Z sym  total        # sym  WBO       # sym  WBO       # sym  WBO
 ---------------------------------------------------------------------------
     1   1 H    0.923 --     3 O    0.923
     2   1 H    0.923 --     3 O    0.923
     3   8 O    1.846 --     2 H    0.923     1 H    0.923
 ---------------------------------------------------------------------------

Topologies differ in total number of bonds
Writing topology from bond orders to xtbtopo.mol

molecular dipole:
                 x           y           z       tot (Debye)
 q only:       -0.259       0.448       0.359
   full:       -0.364       0.630       0.505       2.250
molecular quadrupole (traceless):
                xx          xy          yy          xz          yz          zz
 q only:       -1.542      -3.744       2.781      -1.349       2.337      -1.239
  q+dip:       -2.119      -5.216       3.903      -1.910       3.309      -1.784
   full:       -2.272      -5.364       3.922      -1.891       3.275      -1.650


           -------------------------------------------------
          | TOTAL ENERGY               -5.067033098113 Eh   |
          | GRADIENT NORM               0.065845930006 Eh/α |
          | HOMO-LUMO GAP              12.446510359095 eV   |
           -------------------------------------------------

------------------------------------------------------------------------
 * finished run on 2025/07/06 at 17:07:26.884     
------------------------------------------------------------------------
 total:
 * wall-time:     0 d,  0 h,  0 min,  0.012 sec
 *  cpu-time:     0 d,  0 h,  0 min,  0.009 sec
 * ratio c/w:     0.746 speedup
 SCF:
 * wall-time:     0 d,  0 h,  0 min,  0.002 sec
 *  cpu-time:     0 d,  0 h,  0 min,  0.002 sec
 * ratio c/w:     0.658 speedup

