      -----------------------------------------------------------      
     |                   =====================                   |     
     |                           x T B                           |     
     |                   =====================                   |     
     |                         S. Grimme                         |     
     |          Mulliken Center for Theoretical Chemistry        |     
     |                    University of Bonn                     |     
      -----------------------------------------------------------      

   * xtb version 6.7.1 (unknown) compiled by 'runner@Mac-1732184002186.local' on 2024-11-21

   xtb is free software: you can redistribute it and/or modify it under
   the terms of the GNU Lesser General Public License as published by
   the Free Software Foundation, either version 3 of the License, or
   (at your option) any later version.
   
   xtb is distributed in the hope that it will be useful,
   but WITHOUT ANY WARRANTY; without even the implied warranty of
   MERCHANTABILITY or FITNESS FOR A PARTICULAR PURPOSE.  See the
   GNU Lesser General Public License for more details.
   
   Cite this work as:
   * C. Bannwarth, E. Caldeweyher, S. Ehlert, A. Hansen, P. Pracht,
     J. Seibert, S. Spicher, S. Grimme, WIREs Comput. Mol. Sci., 2020, 11,
     e01493. DOI: 10.1002/wcms.1493
   
   for GFN2-xTB:
   * C. Bannwarth, S. Ehlert and S. Grimme., J. Chem. Theory Comput., 2019,
     15, 1652-1671. DOI: 10.1021/acs.jctc.8b01176
   for GFN1-xTB:
   * S. Grimme, C. Bannwarth, P. Shushkov, J. Chem. Theory Comput., 2017,
     13, 1989-2009. DOI: 10.1021/acs.jctc.7b00118
   for GFN0-xTB:
   * P. Pracht, E. Caldeweyher, S. Ehlert, S. Grimme, ChemRxiv, 2019, preprint.
     DOI: 10.26434/chemrxiv.8326202.v1
   for GFN-FF:
   * S. Spicher and S. Grimme, Angew. Chem. Int. Ed., 2020, 59, 15665-15673.
     DOI: 10.1002/anie.202004239
   
   for ALPB and GBSA implicit solvation:
   * S. Ehlert, M. Stahn, S. Spicher, S. Grimme, J. Chem. Theory Comput.,
     2021, 17, 4250-4261. DOI: 10.1021/acs.jctc.1c00471
   
   for ddCOSMO and CPCM-X implicit solvation:
   * M. Stahn, S. Ehlert, S. Grimme, J. Phys. Chem. A,
     2023, XX, XXXX-XXXX. DOI: 10.1021/acs.jpca.3c04382
   
   for DFT-D4:
   * E. Caldeweyher, C. Bannwarth and S. Grimme, J. Chem. Phys., 2017,
     147, 034112. DOI: 10.1063/1.4993215
   * E. Caldeweyher, S. Ehlert, A. Hansen, H. Neugebauer, S. Spicher,
     C. Bannwarth and S. Grimme, J. Chem. Phys., 2019, 150, 154122.
     DOI: 10.1063/1.5090222
   * E. Caldeweyher, J.-M. Mewes, S. Ehlert and S. Grimme, Phys. Chem. Chem. Phys.
     2020, 22, 8499-8512. DOI: 10.1039/D0CP00502A
   
   for sTDA-xTB:
   * S. Grimme and C. Bannwarth, J. Chem. Phys., 2016, 145, 054103.
     DOI: 10.1063/1.4959605
   
   in the mass-spec context:
   * V. Asgeirsson, C. Bauer and S. Grimme, Chem. Sci., 2017, 8, 4879.
     DOI: 10.1039/c7sc00601b
   * J. Koopman and S. Grimme, ACS Omega 2019, 4, 12, 15120-15133.
     DOI: 10.1021/acsomega.9b02011
   
   for metadynamics refer to:
   * S. Grimme, J. Chem. Theory Comput., 2019, 155, 2847-2862
     DOI: 10.1021/acs.jctc.9b00143
   
   for SPH calculations refer to:
   * S. Spicher and S. Grimme, J. Chem. Theory Comput., 2021, 17, 1701-1714
     DOI: 10.1021/acs.jctc.0c01306
   
   for ONIOM refer to:
   * C. Plett, A. Katbashev, S. Ehlert, S. Grimme, M. Bursch,
     Phys. Chem. Chem. Phys., 2023, 25, 17860-17868. DOI: 10.1039/D3CP02178E
   
   for DIPRO refer to:
   * J. Kohn, N. Gildemeister, S. Grimme, D. Fazzi, A. Hansen,
     J. Chem. Phys., 2023, just accepted.
   
   for PTB refer to:
   * S. Grimme, M. Mueller, A. Hansen, J. Chem. Phys., 2023, 158, 124111.
     DOI: 10.1063/5.0137838
   
   with help from (in alphabetical order)
   P. Atkinson, C. Bannwarth, F. Bohle, G. Brandenburg, E. Caldeweyher
   M. Checinski, S. Dohm, S. Ehlert, S. Ehrlich, I. Gerasimov, C. Hölzer
   A. Katbashev, J. Kohn, J. Koopman, C. Lavigne, S. Lehtola, F. März, M. Müller,
   F. Musil, H. Neugebauer, J. Pisarek, C. Plett, P. Pracht, F. Pultar,
   J. Seibert, P. Shushkov, S. Spicher, M. Stahn, M. Steiner, T. Strunk,
   J. Stückrath, T. Rose, and J. Unsleber
   
 * started run on 2025/07/06 at 17:07:26.970     
   ID    Z sym.   atoms
    1    1 H      1, 2, 4, 5, 7, 8, 10, 11, 13, 14, 16, 17, 19, 20, 22, 23,
                  25, 26, 28, 29, 31, 32, 34, 35, 37, 38, 40, 41, 43, 44, 46,
                  47, 49, 50, 52, 53, 55, 56, 58, 59, 61, 62, 64, 65, 67, 68,
                  70, 71, 73, 74, 76, 77, 79, 80, 82, 83, 85, 86, 88, 89, 91,
                  92, 94, 95, 97, 98, 100, 101, 103, 104, 106, 107, 109, 110,
                  112, 113, 115, 116, 118, 119, 121, 122, 124, 125, 127, 128,
                  130, 131, 133, 134, 136, 137, 139, 140, 142, 143, 145, 146,
                  148, 149, 151, 152, 154, 155, 157, 158, 160, 161, 163, 164,
                  166, 167, 169, 170, 172, 173, 175, 176, 178, 179, 181, 182,
                  184, 185, 187, 188, 190, 191, 193, 194, 196, 197, 199, 200,
                  202, 203, 205, 206, 208, 209, 211, 212, 214, 215, 217, 218,
                  220, 221, 223, 224, 226, 227, 229, 230, 232, 233, 235, 236,
                  238, 239, 241, 242, 244, 245, 247, 248, 250, 251, 253, 254,
                  256, 257, 259, 260, 262, 263, 265, 266, 268, 269, 271, 272,
                  274, 275, 277, 278, 280, 281, 283, 284, 286, 287, 289, 290
    2    8 O      3, 6, 9, 12, 15, 18, 21, 24, 27, 30, 33, 36, 39, 42, 45,
                  48, 51, 54, 57, 60, 63, 66, 69, 72, 75, 78, 81, 84, 87, 90,
                  93, 96, 99, 102, 105, 108, 111, 114, 117, 120, 123, 126,
                  129, 132, 135, 138, 141, 144, 147, 150, 153, 156, 159, 162,
                  165, 168, 171, 174, 177, 180, 183, 186, 189, 192, 195, 198,
                  201, 204, 207, 210, 213, 216, 219, 222, 225, 228, 231, 234,
                  237, 240, 243, 246, 249, 252, 255, 258, 261, 264, 267, 270,
                  273, 276, 279, 282, 285, 288, 291

           -------------------------------------------------
          |                Calculation Setup                |
           -------------------------------------------------

          program call               : xtb ice_cluster_8.xyz --gfn2
          coordinate file            : ice_cluster_8.xyz
          omp threads                :                     1


molecular fragmentation (1/2 indicates fragments):
111222222222222222222222222222222222222222222222222222222222222222222222
222222222222222222222222222222222222222222222222222222222222222222222222
222222222222222222222222222222222222222222222222222222222222222222222222
222222222222222222222222222222222222222222222222222222222222222222222222
222
# atoms in fragment 1/2:     3   288
 fragment masses (1/2) :       18.02     1729.47
CMA distance (Bohr)    :   0.607
constraining FC (au)   :  0.0500

           -------------------------------------------------
          |                 G F N 2 - x T B                 |
           -------------------------------------------------

        Reference                      10.1021/acs.jctc.8b01176
      * Hamiltonian:
        H0-scaling (s, p, d)           1.850000    2.230000    2.230000
        zeta-weighting                 0.500000
      * Dispersion:
        s8                             2.700000
        a1                             0.520000
        a2                             5.000000
        s9                             5.000000
      * Repulsion:
        kExp                           1.500000    1.000000
        rExp                           1.000000
      * Coulomb:
        alpha                          2.000000
        third order                    shell-resolved
        anisotropic                    true
        a3                             3.000000
        a5                             4.000000
        cn-shift                       1.200000
        cn-exp                         4.000000
        max-rad                        5.000000


          ...................................................
          :                      SETUP                      :
          :.................................................:
          :  # basis functions                 582          :
          :  # atomic orbitals                 582          :
          :  # shells                          388          :
          :  # electrons                       776          :
          :  max. iterations                   250          :
          :  Hamiltonian                  GFN2-xTB          :
          :  restarted?                      false          :
          :  GBSA solvation                  false          :
          :  PC potential                    false          :
          :  electronic temp.          300.0000000     K    :
          :  accuracy                    1.0000000          :
          :  -> integral cutoff          0.2500000E+02      :
          :  -> integral neglect         0.1000000E-07      :
          :  -> SCF convergence          0.1000000E-05 Eh   :
          :  -> wf. convergence          0.1000000E-03 e    :
          :  Broyden damping             0.4000000          :
          :  net charge                          0          :
          :  unpaired electrons                  0          :
          ...................................................

 iter      E             dE          RMSdq      gap      omega  full diag
   1   -495.0797756 -0.495080E+03  0.391E+00    9.74       0.0  T
   2   -495.1966072 -0.116832E+00  0.229E+00    5.92       1.0  T
   3   -495.2189875 -0.223803E-01  0.345E-01    0.38       1.0  T
   4   -495.2246903 -0.570284E-02  0.668E-02    0.78       1.0  T
   5   -495.2248968 -0.206417E-03  0.313E-02    0.67       1.0  T
   6   -495.2249252 -0.284636E-04  0.634E-03    0.76       1.0  T
   7   -495.2249266 -0.141970E-05  0.166E-03    0.76       3.5  T
   8   -495.2249267 -0.728376E-07  0.873E-04    0.76       6.7  T
   9   -495.2249268 -0.412397E-07  0.110E-04    0.76      53.1  T

   *** convergence criteria satisfied after 9 iterations ***

         #    Occupation            Energy/Eh            Energy/eV
      -------------------------------------------------------------
         1        2.0000           -0.8538608             -23.2347
       ...           ...                  ...                  ...
       382        2.0000           -0.2776232              -7.5545
       383        2.0000           -0.2511489              -6.8341
       384        2.0000           -0.2477899              -6.7427
       385        2.0000           -0.2337949              -6.3619
       386        2.0000           -0.2337586              -6.3609
       387        2.0000           -0.2262839              -6.1575
       388        2.0000           -0.2262790              -6.1574 (HOMO)
       389        0.0000           -0.1985014              -5.4015 (LUMO)
       390                         -0.1807887              -4.9195
       391                         -0.1668357              -4.5398
       392                         -0.1409508              -3.8355
       393                         -0.1354483              -3.6857
       ...                                ...                  ...
       582                          0.4866426              13.2422
      -------------------------------------------------------------
                  HL-Gap            0.0277776 Eh            0.7559 eV
             Fermi-level           -0.2120620 Eh           -5.7705 eV

 SCC (total)                   0 d,  0 h,  0 min,  1.335 sec
 SCC setup                      ...        0 min,  0.003 sec (  0.239%)
 Dispersion                     ...        0 min,  0.006 sec (  0.481%)
 classical contributions        ...        0 min,  0.004 sec (  0.273%)
 integral evaluation            ...        0 min,  0.051 sec (  3.857%)
 iterations                     ...        0 min,  0.503 sec ( 37.672%)
 molecular gradient             ...        0 min,  0.760 sec ( 56.926%)
 printout                       ...        0 min,  0.007 sec (  0.552%)

         :::::::::::::::::::::::::::::::::::::::::::::::::::::
         ::                     SUMMARY                     ::
         :::::::::::::::::::::::::::::::::::::::::::::::::::::
         :: total energy            -493.069023706267 Eh    ::
         :: gradient norm              0.489824302032 Eh/a0 ::
         :: HOMO-LUMO gap              0.755866616277 eV    ::
         ::.................................................::
         :: SCC energy              -495.203290068448 Eh    ::
         :: -> isotropic ES            3.077517190598 Eh    ::
         :: -> anisotropic ES         -0.429286893626 Eh    ::
         :: -> anisotropic XC         -0.031971838137 Eh    ::
         :: -> dispersion             -0.178187237544 Eh    ::
         :: repulsion energy           2.134266362180 Eh    ::
         :: add. restraining           0.000000000000 Eh    ::
         :: total charge               0.000000000002 e     ::
         :::::::::::::::::::::::::::::::::::::::::::::::::::::

           -------------------------------------------------
          |                Property Printout                |
           -------------------------------------------------

    * Orbital Energies and Occupations

         #    Occupation            Energy/Eh            Energy/eV
      -------------------------------------------------------------
         1        2.0000           -0.8538608             -23.2347
       ...           ...                  ...                  ...
       376        2.0000           -0.2972086              -8.0875
       377        2.0000           -0.2856341              -7.7725
       378        2.0000           -0.2855026              -7.7689
       379        2.0000           -0.2849183              -7.7530
       380        2.0000           -0.2810507              -7.6478
       381        2.0000           -0.2798329              -7.6146
       382        2.0000           -0.2776232              -7.5545
       383        2.0000           -0.2511489              -6.8341
       384        2.0000           -0.2477899              -6.7427
       385        2.0000           -0.2337949              -6.3619
       386        2.0000           -0.2337586              -6.3609
       387        2.0000           -0.2262839              -6.1575
       388        2.0000           -0.2262790              -6.1574 (HOMO)
       389        0.0000           -0.1985014              -5.4015 (LUMO)
       390                         -0.1807887              -4.9195
       391                         -0.1668357              -4.5398
       392                         -0.1409508              -3.8355
       393                         -0.1354483              -3.6857
       394                         -0.1251493              -3.4055
       395                         -0.1108362              -3.0160
       396                         -0.1106800              -3.0118
       397                         -0.1040692              -2.8319
       398                         -0.0950208              -2.5856
       399                         -0.0906157              -2.4658
       ...                                ...                  ...
       582                          0.4866426              13.2422
      -------------------------------------------------------------
                  HL-Gap            0.0277776 Eh            0.7559 eV
             Fermi-level           -0.2120620 Eh           -5.7705 eV

     #   Z          covCN         q      C6AA      α(0)
     1   1 H        0.798     0.316     0.677     1.293
     2   1 H        0.797     0.343     0.605     1.223
     3   8 O        1.595    -0.660    26.671     6.970
     4   1 H        0.798     0.339     0.615     1.232
     5   1 H        0.798     0.295     0.737     1.350
     6   8 O        1.596    -0.595    25.069     6.757
     7   1 H        0.798     0.323     0.658     1.275
     8   1 H        0.798     0.246     0.910     1.499
     9   8 O        1.595    -0.621    25.704     6.842
    10   1 H        0.798     0.327     0.647     1.264
    11   1 H        0.798     0.279     0.789     1.396
    12   8 O        1.595    -0.607    25.369     6.797
    13   1 H        0.798     0.312     0.686     1.302
    14   1 H        0.798     0.312     0.686     1.302
    15   8 O        1.596    -0.543    23.863     6.593
    16   1 H        0.798     0.329     0.640     1.257
    17   1 H        0.798     0.329     0.640     1.257
    18   8 O        1.596    -0.654    26.533     6.952
    19   1 H        0.798     0.330     0.638     1.255
    20   1 H        0.798     0.330     0.638     1.255
    21   8 O        1.596    -0.657    26.608     6.961
    22   1 H        0.798     0.294     0.740     1.352
    23   1 H        0.798     0.294     0.740     1.352
    24   8 O        1.595    -0.673    27.004     7.013
    25   1 H        0.798     0.310     0.693     1.309
    26   1 H        0.798     0.310     0.693     1.309
    27   8 O        1.595    -0.647    26.358     6.929
    28   1 H        0.798     0.295     0.737     1.350
    29   1 H        0.798     0.339     0.615     1.232
    30   8 O        1.596    -0.595    25.069     6.757
    31   1 H        0.798     0.246     0.910     1.499
    32   1 H        0.798     0.323     0.658     1.275
    33   8 O        1.595    -0.621    25.704     6.842
    34   1 H        0.798     0.279     0.789     1.396
    35   1 H        0.798     0.327     0.647     1.264
    36   8 O        1.595    -0.607    25.369     6.797
    37   1 H        0.798     0.296     0.733     1.346
    38   1 H        0.797     0.325     0.653     1.270
    39   8 O        1.595    -0.654    26.532     6.951
    40   1 H        0.798     0.317     0.674     1.291
    41   1 H        0.797     0.295     0.737     1.349
    42   8 O        1.595    -0.610    25.431     6.806
    43   1 H        0.798     0.269     0.823     1.425
    44   1 H        0.797     0.314     0.683     1.298
    45   8 O        1.595    -0.667    26.859     6.994
    46   1 H        0.798     0.318     0.670     1.286
    47   1 H        0.797     0.332     0.634     1.251
    48   8 O        1.595    -0.651    26.460     6.942
    49   1 H        0.798     0.286     0.766     1.375
    50   1 H        0.797     0.358     0.572     1.189
    51   8 O        1.595    -0.609    25.424     6.805
    52   1 H        0.798     0.332     0.632     1.249
    53   1 H        0.797     0.308     0.700     1.315
    54   8 O        1.595    -0.601    25.223     6.778
    55   1 H        0.798     0.296     0.733     1.346
    56   1 H        0.797     0.325     0.653     1.270
    57   8 O        1.595    -0.654    26.532     6.951
    58   1 H        0.798     0.317     0.674     1.291
    59   1 H        0.797     0.295     0.737     1.349
    60   8 O        1.595    -0.610    25.431     6.806
    61   1 H        0.798     0.318     0.671     1.287
    62   1 H        0.798     0.326     0.648     1.265
    63   8 O        1.596    -0.642    26.222     6.911
    64   1 H        0.798     0.327     0.646     1.263
    65   1 H        0.798     0.330     0.640     1.257
    66   8 O        1.596    -0.653    26.500     6.947
    67   1 H        0.798     0.318     0.670     1.286
    68   1 H        0.798     0.336     0.622     1.239
    69   8 O        1.596    -0.650    26.427     6.938
    70   1 H        0.798     0.328     0.643     1.260
    71   1 H        0.798     0.330     0.638     1.255
    72   8 O        1.596    -0.655    26.559     6.955
    73   1 H        0.798     0.336     0.623     1.240
    74   1 H        0.798     0.319     0.667     1.283
    75   8 O        1.596    -0.649    26.391     6.933
    76   1 H        0.798     0.336     0.624     1.241
    77   1 H        0.798     0.318     0.669     1.286
    78   8 O        1.596    -0.648    26.387     6.932
    79   1 H        0.798     0.288     0.761     1.370
    80   1 H        0.797     0.306     0.705     1.320
    81   8 O        1.595    -0.690    27.460     7.072
    82   1 H        0.798     0.316     0.675     1.291
    83   1 H        0.797     0.346     0.600     1.217
    84   8 O        1.595    -0.660    26.685     6.971
    85   1 H        0.798     0.276     0.799     1.404
    86   1 H        0.797     0.334     0.629     1.247
    87   8 O        1.595    -0.608    25.397     6.801
    88   1 H        0.798     0.235     0.958     1.538
    89   1 H        0.797     0.324     0.654     1.270
    90   8 O        1.595    -0.613    25.499     6.815
    91   1 H        0.798     0.330     0.639     1.256
    92   1 H        0.797     0.262     0.850     1.449
    93   8 O        1.595    -0.600    25.187     6.773
    94   1 H        0.798     0.315     0.679     1.295
    95   1 H        0.797     0.338     0.619     1.237
    96   8 O        1.595    -0.651    26.454     6.941
    97   1 H        0.798     0.313     0.684     1.299
    98   1 H        0.797     0.328     0.644     1.262
    99   8 O        1.595    -0.555    24.146     6.631
   100   1 H        0.798     0.326     0.648     1.265
   101   1 H        0.797     0.285     0.770     1.379
   102   8 O        1.595    -0.613    25.522     6.818
   103   1 H        0.798     0.313     0.683     1.299
   104   1 H        0.797     0.344     0.603     1.221
   105   8 O        1.595    -0.658    26.633     6.965
   106   1 H        0.798     0.277     0.795     1.402
   107   1 H        0.797     0.333     0.631     1.248
   108   8 O        1.595    -0.609    25.416     6.804
   109   1 H        0.798     0.336     0.622     1.239
   110   1 H        0.798     0.318     0.670     1.286
   111   8 O        1.596    -0.650    26.427     6.938
   112   1 H        0.798     0.330     0.638     1.255
   113   1 H        0.798     0.328     0.643     1.260
   114   8 O        1.596    -0.655    26.559     6.955
   115   1 H        0.798     0.319     0.667     1.283
   116   1 H        0.798     0.336     0.623     1.240
   117   8 O        1.596    -0.649    26.391     6.933
   118   1 H        0.798     0.318     0.669     1.286
   119   1 H        0.798     0.336     0.624     1.241
   120   8 O        1.596    -0.648    26.387     6.932
   121   1 H        0.798     0.326     0.648     1.265
   122   1 H        0.798     0.318     0.671     1.287
   123   8 O        1.596    -0.642    26.222     6.911
   124   1 H        0.798     0.330     0.640     1.257
   125   1 H        0.798     0.327     0.646     1.263
   126   8 O        1.596    -0.653    26.500     6.947
   127   1 H        0.798     0.330     0.639     1.256
   128   1 H        0.797     0.262     0.850     1.449
   129   8 O        1.595    -0.600    25.187     6.773
   130   1 H        0.798     0.315     0.679     1.295
   131   1 H        0.797     0.338     0.619     1.237
   132   8 O        1.595    -0.651    26.454     6.941
   133   1 H        0.798     0.313     0.684     1.299
   134   1 H        0.797     0.328     0.644     1.262
   135   8 O        1.595    -0.555    24.146     6.631
   136   1 H        0.798     0.326     0.648     1.265
   137   1 H        0.797     0.285     0.770     1.379
   138   8 O        1.595    -0.613    25.522     6.818
   139   1 H        0.798     0.313     0.683     1.299
   140   1 H        0.797     0.344     0.603     1.221
   141   8 O        1.595    -0.658    26.633     6.965
   142   1 H        0.798     0.277     0.795     1.402
   143   1 H        0.797     0.333     0.631     1.248
   144   8 O        1.595    -0.609    25.416     6.804
   145   1 H        0.798     0.288     0.761     1.370
   146   1 H        0.797     0.306     0.705     1.320
   147   8 O        1.595    -0.690    27.460     7.072
   148   1 H        0.798     0.316     0.675     1.291
   149   1 H        0.797     0.346     0.600     1.217
   150   8 O        1.595    -0.660    26.685     6.971
   151   1 H        0.798     0.276     0.799     1.404
   152   1 H        0.797     0.334     0.629     1.247
   153   8 O        1.595    -0.608    25.397     6.801
   154   1 H        0.798     0.235     0.958     1.538
   155   1 H        0.797     0.324     0.654     1.270
   156   8 O        1.595    -0.613    25.499     6.815
   157   1 H        0.798     0.289     0.756     1.366
   158   1 H        0.798     0.349     0.593     1.210
   159   8 O        1.596    -0.599    25.179     6.772
   160   1 H        0.798     0.329     0.641     1.259
   161   1 H        0.798     0.329     0.641     1.259
   162   8 O        1.596    -0.654    26.525     6.951
   163   1 H        0.798     0.308     0.700     1.315
   164   1 H        0.798     0.308     0.700     1.315
   165   8 O        1.595    -0.645    26.291     6.920
   166   1 H        0.798     0.310     0.693     1.308
   167   1 H        0.798     0.310     0.693     1.308
   168   8 O        1.595    -0.659    26.660     6.968
   169   1 H        0.798     0.329     0.641     1.258
   170   1 H        0.798     0.329     0.641     1.258
   171   8 O        1.596    -0.655    26.563     6.956
   172   1 H        0.798     0.330     0.638     1.255
   173   1 H        0.798     0.330     0.638     1.255
   174   8 O        1.596    -0.656    26.568     6.956
   175   1 H        0.798     0.349     0.593     1.210
   176   1 H        0.798     0.289     0.756     1.366
   177   8 O        1.596    -0.599    25.179     6.772
   178   1 H        0.798     0.314     0.680     1.296
   179   1 H        0.797     0.294     0.741     1.352
   180   8 O        1.595    -0.606    25.351     6.795
   181   1 H        0.798     0.269     0.825     1.427
   182   1 H        0.797     0.334     0.629     1.247
   183   8 O        1.595    -0.604    25.293     6.787
   184   1 H        0.798     0.339     0.616     1.233
   185   1 H        0.797     0.295     0.736     1.348
   186   8 O        1.595    -0.597    25.119     6.764
   187   1 H        0.798     0.317     0.674     1.290
   188   1 H        0.797     0.333     0.631     1.249
   189   8 O        1.595    -0.649    26.397     6.934
   190   1 H        0.798     0.315     0.678     1.294
   191   1 H        0.797     0.345     0.601     1.218
   192   8 O        1.595    -0.660    26.673     6.970
   193   1 H        0.798     0.317     0.674     1.290
   194   1 H        0.797     0.344     0.603     1.220
   195   8 O        1.595    -0.661    26.713     6.975
   196   1 H        0.798     0.314     0.680     1.296
   197   1 H        0.797     0.294     0.741     1.352
   198   8 O        1.595    -0.606    25.351     6.795
   199   1 H        0.798     0.269     0.825     1.427
   200   1 H        0.797     0.334     0.629     1.247
   201   8 O        1.595    -0.604    25.293     6.787
   202   1 H        0.798     0.342     0.607     1.225
   203   1 H        0.798     0.285     0.770     1.379
   204   8 O        1.596    -0.593    25.036     6.753
   205   1 H        0.798     0.326     0.650     1.267
   206   1 H        0.798     0.329     0.640     1.257
   207   8 O        1.596    -0.652    26.475     6.944
   208   1 H        0.798     0.304     0.711     1.325
   209   1 H        0.798     0.342     0.608     1.226
   210   8 O        1.596    -0.603    25.268     6.784
   211   1 H        0.798     0.319     0.667     1.284
   212   1 H        0.798     0.301     0.719     1.332
   213   8 O        1.595    -0.664    26.771     6.983
   214   1 H        0.798     0.332     0.634     1.251
   215   1 H        0.798     0.329     0.641     1.258
   216   8 O        1.596    -0.657    26.606     6.961
   217   1 H        0.798     0.330     0.640     1.257
   218   1 H        0.798     0.320     0.665     1.281
   219   8 O        1.596    -0.644    26.269     6.917
   220   1 H        0.798     0.322     0.660     1.277
   221   1 H        0.798     0.334     0.629     1.246
   222   8 O        1.596    -0.651    26.449     6.941
   223   1 H        0.798     0.281     0.783     1.391
   224   1 H        0.797     0.309     0.695     1.310
   225   8 O        1.595    -0.680    27.194     7.038
   226   1 H        0.798     0.255     0.876     1.471
   227   1 H        0.797     0.345     0.600     1.218
   228   8 O        1.595    -0.605    25.326     6.792
   229   1 H        0.798     0.313     0.683     1.299
   230   1 H        0.797     0.338     0.619     1.237
   231   8 O        1.595    -0.652    26.467     6.943
   232   1 H        0.798     0.312     0.687     1.303
   233   1 H        0.797     0.340     0.612     1.230
   234   8 O        1.595    -0.651    26.456     6.942
   235   1 H        0.798     0.314     0.680     1.296
   236   1 H        0.797     0.341     0.610     1.228
   237   8 O        1.595    -0.656    26.574     6.957
   238   1 H        0.798     0.312     0.688     1.303
   239   1 H        0.797     0.344     0.603     1.221
   240   8 O        1.595    -0.657    26.613     6.962
   241   1 H        0.798     0.332     0.632     1.250
   242   1 H        0.797     0.298     0.730     1.343
   243   8 O        1.595    -0.593    25.034     6.752
   244   1 H        0.798     0.311     0.691     1.306
   245   1 H        0.797     0.328     0.643     1.260
   246   8 O        1.595    -0.554    24.129     6.629
   247   1 H        0.798     0.301     0.719     1.332
   248   1 H        0.798     0.319     0.667     1.284
   249   8 O        1.595    -0.664    26.771     6.983
   250   1 H        0.798     0.329     0.641     1.258
   251   1 H        0.798     0.332     0.634     1.251
   252   8 O        1.596    -0.657    26.606     6.961
   253   1 H        0.798     0.320     0.665     1.281
   254   1 H        0.798     0.330     0.640     1.257
   255   8 O        1.596    -0.644    26.269     6.917
   256   1 H        0.798     0.334     0.629     1.246
   257   1 H        0.798     0.322     0.660     1.277
   258   8 O        1.596    -0.651    26.449     6.941
   259   1 H        0.798     0.285     0.770     1.379
   260   1 H        0.798     0.342     0.607     1.225
   261   8 O        1.596    -0.593    25.036     6.753
   262   1 H        0.798     0.329     0.640     1.257
   263   1 H        0.798     0.326     0.650     1.267
   264   8 O        1.596    -0.652    26.475     6.944
   265   1 H        0.798     0.342     0.608     1.226
   266   1 H        0.798     0.304     0.711     1.325
   267   8 O        1.596    -0.603    25.268     6.784
   268   1 H        0.798     0.314     0.680     1.296
   269   1 H        0.797     0.341     0.610     1.228
   270   8 O        1.595    -0.656    26.574     6.957
   271   1 H        0.798     0.312     0.688     1.303
   272   1 H        0.797     0.344     0.603     1.221
   273   8 O        1.595    -0.657    26.613     6.962
   274   1 H        0.798     0.332     0.632     1.250
   275   1 H        0.797     0.298     0.730     1.343
   276   8 O        1.595    -0.593    25.034     6.752
   277   1 H        0.798     0.311     0.691     1.306
   278   1 H        0.797     0.328     0.643     1.260
   279   8 O        1.595    -0.554    24.129     6.629
   280   1 H        0.798     0.281     0.783     1.391
   281   1 H        0.797     0.309     0.695     1.310
   282   8 O        1.595    -0.680    27.194     7.038
   283   1 H        0.798     0.255     0.876     1.471
   284   1 H        0.797     0.345     0.600     1.218
   285   8 O        1.595    -0.605    25.326     6.792
   286   1 H        0.798     0.313     0.683     1.299
   287   1 H        0.797     0.338     0.619     1.237
   288   8 O        1.595    -0.652    26.467     6.943
   289   1 H        0.798     0.312     0.687     1.303
   290   1 H        0.797     0.340     0.612     1.230
   291   8 O        1.595    -0.651    26.456     6.942

 Mol. C6AA /au·bohr⁶  :     425089.082958
 Mol. C8AA /au·bohr⁸  :    7664768.356711
 Mol. α(0) /au        :        918.398374


Wiberg/Mayer (AO) data.
largest (>0.10) Wiberg bond orders for each atom

 ---------------------------------------------------------------------------
     #   Z sym  total        # sym  WBO       # sym  WBO       # sym  WBO
 ---------------------------------------------------------------------------
     1   1 H    0.900 --     3 O    0.831
     2   1 H    0.882 --     3 O    0.801
     3   8 O    1.906 --     1 H    0.831     2 H    0.801
     4   1 H    0.885 --     6 O    0.805
     5   1 H    0.913 --     6 O    0.908
     6   8 O    1.942 --     5 H    0.908     4 H    0.805
     7   1 H    0.896 --     9 O    0.824
     8   1 H    0.939 --     9 O    0.939
     9   8 O    1.799 --     8 H    0.939     7 H    0.824
    10   1 H    0.893 --    12 O    0.820
    11   1 H    0.922 --    12 O    0.920
    12   8 O    1.877 --    11 H    0.920    10 H    0.820
    13   1 H    0.902 --    15 O    0.897
    14   1 H    0.902 --    15 O    0.897
    15   8 O    1.969 --    13 H    0.897    14 H    0.897
    16   1 H    0.892 --    18 O    0.817
    17   1 H    0.892 --    18 O    0.817
    18   8 O    1.915 --    17 H    0.817    16 H    0.817
    19   1 H    0.891 --    21 O    0.817
    20   1 H    0.891 --    21 O    0.817
    21   8 O    1.911 --    19 H    0.817    20 H    0.817
    22   1 H    0.913 --    24 O    0.854
    23   1 H    0.913 --    24 O    0.854
    24   8 O    1.775 --    22 H    0.854    23 H    0.854
    25   1 H    0.904 --    27 O    0.842
    26   1 H    0.904 --    27 O    0.842
    27   8 O    1.861 --    25 H    0.842    26 H    0.842
    28   1 H    0.913 --    30 O    0.908
    29   1 H    0.885 --    30 O    0.805
    30   8 O    1.942 --    28 H    0.908    29 H    0.805
    31   1 H    0.939 --    33 O    0.939
    32   1 H    0.896 --    33 O    0.824
    33   8 O    1.799 --    31 H    0.939    32 H    0.824
    34   1 H    0.922 --    36 O    0.920
    35   1 H    0.893 --    36 O    0.820
    36   8 O    1.877 --    34 H    0.920    35 H    0.820
    37   1 H    0.912 --    39 O    0.851
    38   1 H    0.895 --    39 O    0.824
    39   8 O    1.858 --    37 H    0.851    38 H    0.824
    40   1 H    0.900 --    42 O    0.829
    41   1 H    0.913 --    42 O    0.911
    42   8 O    1.880 --    41 H    0.911    40 H    0.829
    43   1 H    0.927 --    45 O    0.876
    44   1 H    0.902 --    45 O    0.831
    45   8 O    1.777 --    43 H    0.876    44 H    0.831
    46   1 H    0.899 --    48 O    0.828
    47   1 H    0.890 --    48 O    0.809
    48   8 O    1.914 --    46 H    0.828    47 H    0.809
    49   1 H    0.918 --    51 O    0.913
    50   1 H    0.872 --    51 O    0.781
    51   8 O    1.931 --    49 H    0.913    50 H    0.781
    52   1 H    0.889 --    54 O    0.809
    53   1 H    0.905 --    54 O    0.901
    54   8 O    1.939 --    53 H    0.901    52 H    0.809
    55   1 H    0.912 --    57 O    0.851
    56   1 H    0.895 --    57 O    0.824
    57   8 O    1.858 --    55 H    0.851    56 H    0.824
    58   1 H    0.900 --    60 O    0.829
    59   1 H    0.913 --    60 O    0.911
    60   8 O    1.880 --    59 H    0.911    58 H    0.829
    61   1 H    0.899 --    63 O    0.829
    62   1 H    0.894 --    63 O    0.819
    63   8 O    1.918 --    61 H    0.829    62 H    0.819
    64   1 H    0.893 --    66 O    0.818
    65   1 H    0.891 --    66 O    0.817
    66   8 O    1.916 --    64 H    0.818    65 H    0.817
    67   1 H    0.899 --    69 O    0.830
    68   1 H    0.887 --    69 O    0.809
    69   8 O    1.916 --    67 H    0.830    68 H    0.809
    70   1 H    0.892 --    72 O    0.818
    71   1 H    0.891 --    72 O    0.815
    72   8 O    1.914 --    70 H    0.818    71 H    0.815
    73   1 H    0.887 --    75 O    0.810
    74   1 H    0.898 --    75 O    0.829
    75   8 O    1.919 --    74 H    0.829    73 H    0.810
    76   1 H    0.887 --    78 O    0.810
    77   1 H    0.899 --    78 O    0.833
    78   8 O    1.915 --    77 H    0.833    76 H    0.810
    79   1 H    0.917 --    81 O    0.856
    80   1 H    0.906 --    81 O    0.833
    81   8 O    1.762 --    79 H    0.856    80 H    0.833
    82   1 H    0.900 --    84 O    0.829
    83   1 H    0.881 --    84 O    0.797
    84   8 O    1.911 --    82 H    0.829    83 H    0.797
    85   1 H    0.924 --    87 O    0.921
    86   1 H    0.889 --    87 O    0.813
    87   8 O    1.881 --    85 H    0.921    86 H    0.813
    88   1 H    0.945 --    90 O    0.944
    89   1 H    0.895 --    90 O    0.821
    90   8 O    1.803 --    88 H    0.944    89 H    0.821
    91   1 H    0.891 --    93 O    0.815
    92   1 H    0.931 --    93 O    0.929
    93   8 O    1.874 --    92 H    0.929    91 H    0.815
    94   1 H    0.901 --    96 O    0.831
    95   1 H    0.886 --    96 O    0.809
    96   8 O    1.912 --    94 H    0.831    95 H    0.809
    97   1 H    0.902 --    99 O    0.897
    98   1 H    0.893 --    99 O    0.888
    99   8 O    1.965 --    97 H    0.897    98 H    0.888
   100   1 H    0.894 --   102 O    0.821
   101   1 H    0.919 --   102 O    0.917
   102   8 O    1.872 --   101 H    0.917   100 H    0.821
   103   1 H    0.902 --   105 O    0.833
   104   1 H    0.882 --   105 O    0.798
   105   8 O    1.909 --   103 H    0.833   104 H    0.798
   106   1 H    0.923 --   108 O    0.921
   107   1 H    0.889 --   108 O    0.814
   108   8 O    1.879 --   106 H    0.921   107 H    0.814
   109   1 H    0.887 --   111 O    0.809
   110   1 H    0.899 --   111 O    0.830
   111   8 O    1.916 --   110 H    0.830   109 H    0.809
   112   1 H    0.891 --   114 O    0.815
   113   1 H    0.892 --   114 O    0.818
   114   8 O    1.914 --   113 H    0.818   112 H    0.815
   115   1 H    0.898 --   117 O    0.829
   116   1 H    0.887 --   117 O    0.810
   117   8 O    1.919 --   115 H    0.829   116 H    0.810
   118   1 H    0.899 --   120 O    0.833
   119   1 H    0.887 --   120 O    0.810
   120   8 O    1.915 --   118 H    0.833   119 H    0.810
   121   1 H    0.894 --   123 O    0.819
   122   1 H    0.899 --   123 O    0.829
   123   8 O    1.918 --   122 H    0.829   121 H    0.819
   124   1 H    0.891 --   126 O    0.817
   125   1 H    0.893 --   126 O    0.818
   126   8 O    1.916 --   125 H    0.818   124 H    0.817
   127   1 H    0.891 --   129 O    0.815
   128   1 H    0.931 --   129 O    0.929
   129   8 O    1.874 --   128 H    0.929   127 H    0.815
   130   1 H    0.901 --   132 O    0.831
   131   1 H    0.886 --   132 O    0.809
   132   8 O    1.912 --   130 H    0.831   131 H    0.809
   133   1 H    0.902 --   135 O    0.897
   134   1 H    0.893 --   135 O    0.888
   135   8 O    1.965 --   133 H    0.897   134 H    0.888
   136   1 H    0.894 --   138 O    0.821
   137   1 H    0.919 --   138 O    0.917
   138   8 O    1.872 --   137 H    0.917   136 H    0.821
   139   1 H    0.902 --   141 O    0.833
   140   1 H    0.882 --   141 O    0.798
   141   8 O    1.909 --   139 H    0.833   140 H    0.798
   142   1 H    0.923 --   144 O    0.921
   143   1 H    0.889 --   144 O    0.814
   144   8 O    1.879 --   142 H    0.921   143 H    0.814
   145   1 H    0.917 --   147 O    0.856
   146   1 H    0.906 --   147 O    0.833
   147   8 O    1.762 --   145 H    0.856   146 H    0.833
   148   1 H    0.900 --   150 O    0.829
   149   1 H    0.881 --   150 O    0.797
   150   8 O    1.911 --   148 H    0.829   149 H    0.797
   151   1 H    0.924 --   153 O    0.921
   152   1 H    0.889 --   153 O    0.813
   153   8 O    1.881 --   151 H    0.921   152 H    0.813
   154   1 H    0.945 --   156 O    0.944
   155   1 H    0.895 --   156 O    0.821
   156   8 O    1.803 --   154 H    0.944   155 H    0.821
   157   1 H    0.916 --   159 O    0.912
   158   1 H    0.878 --   159 O    0.796
   159   8 O    1.938 --   157 H    0.912   158 H    0.796
   160   1 H    0.892 --   162 O    0.818
   161   1 H    0.892 --   162 O    0.818
   162   8 O    1.914 --   160 H    0.818   161 H    0.818
   163   1 H    0.905 --   165 O    0.844
   164   1 H    0.905 --   165 O    0.844
   165   8 O    1.860 --   163 H    0.844   164 H    0.844
   166   1 H    0.904 --   168 O    0.835
   167   1 H    0.904 --   168 O    0.835
   168   8 O    1.853 --   166 H    0.835   167 H    0.835
   169   1 H    0.892 --   171 O    0.818
   170   1 H    0.892 --   171 O    0.818
   171   8 O    1.911 --   170 H    0.818   169 H    0.818
   172   1 H    0.891 --   174 O    0.813
   173   1 H    0.891 --   174 O    0.813
   174   8 O    1.920 --   173 H    0.813   172 H    0.813
   175   1 H    0.878 --   177 O    0.796
   176   1 H    0.916 --   177 O    0.912
   177   8 O    1.938 --   176 H    0.912   175 H    0.796
   178   1 H    0.901 --   180 O    0.834
   179   1 H    0.914 --   180 O    0.911
   180   8 O    1.878 --   179 H    0.911   178 H    0.834
   181   1 H    0.928 --   183 O    0.925
   182   1 H    0.889 --   183 O    0.814
   183   8 O    1.879 --   181 H    0.925   182 H    0.814
   184   1 H    0.885 --   186 O    0.806
   185   1 H    0.913 --   186 O    0.909
   186   8 O    1.938 --   185 H    0.909   184 H    0.806
   187   1 H    0.900 --   189 O    0.824
   188   1 H    0.889 --   189 O    0.817
   189   8 O    1.915 --   187 H    0.824   188 H    0.817
   190   1 H    0.901 --   192 O    0.831
   191   1 H    0.881 --   192 O    0.797
   192   8 O    1.910 --   190 H    0.831   191 H    0.797
   193   1 H    0.900 --   195 O    0.828
   194   1 H    0.881 --   195 O    0.799
   195   8 O    1.908 --   193 H    0.828   194 H    0.799
   196   1 H    0.901 --   198 O    0.834
   197   1 H    0.914 --   198 O    0.911
   198   8 O    1.878 --   197 H    0.911   196 H    0.834
   199   1 H    0.928 --   201 O    0.925
   200   1 H    0.889 --   201 O    0.814
   201   8 O    1.879 --   199 H    0.925   200 H    0.814
   202   1 H    0.883 --   204 O    0.799
   203   1 H    0.919 --   204 O    0.914
   204   8 O    1.939 --   203 H    0.914   202 H    0.799
   205   1 H    0.894 --   207 O    0.819
   206   1 H    0.891 --   207 O    0.817
   207   8 O    1.916 --   205 H    0.819   206 H    0.817
   208   1 H    0.908 --   210 O    0.903
   209   1 H    0.883 --   210 O    0.802
   210   8 O    1.941 --   208 H    0.903   209 H    0.802
   211   1 H    0.898 --   213 O    0.825
   212   1 H    0.909 --   213 O    0.844
   213   8 O    1.846 --   212 H    0.844   211 H    0.825
   214   1 H    0.890 --   216 O    0.815
   215   1 H    0.892 --   216 O    0.818
   216   8 O    1.912 --   215 H    0.818   214 H    0.815
   217   1 H    0.891 --   219 O    0.819
   218   1 H    0.898 --   219 O    0.829
   219   8 O    1.917 --   218 H    0.829   217 H    0.819
   220   1 H    0.896 --   222 O    0.826
   221   1 H    0.889 --   222 O    0.811
   222   8 O    1.917 --   220 H    0.826   221 H    0.811
   223   1 H    0.921 --   225 O    0.864
   224   1 H    0.904 --   225 O    0.834
   225   8 O    1.769 --   223 H    0.864   224 H    0.834
   226   1 H    0.935 --   228 O    0.932
   227   1 H    0.881 --   228 O    0.797
   228   8 O    1.877 --   226 H    0.932   227 H    0.797
   229   1 H    0.902 --   231 O    0.831
   230   1 H    0.886 --   231 O    0.806
   231   8 O    1.913 --   229 H    0.831   230 H    0.806
   232   1 H    0.903 --   234 O    0.834
   233   1 H    0.884 --   234 O    0.804
   234   8 O    1.913 --   232 H    0.834   233 H    0.804
   235   1 H    0.901 --   237 O    0.831
   236   1 H    0.884 --   237 O    0.801
   237   8 O    1.911 --   235 H    0.831   236 H    0.801
   238   1 H    0.903 --   240 O    0.834
   239   1 H    0.882 --   240 O    0.798
   240   8 O    1.908 --   238 H    0.834   239 H    0.798
   241   1 H    0.890 --   243 O    0.813
   242   1 H    0.911 --   243 O    0.907
   243   8 O    1.938 --   242 H    0.907   241 H    0.813
   244   1 H    0.903 --   246 O    0.899
   245   1 H    0.892 --   246 O    0.887
   246   8 O    1.964 --   244 H    0.899   245 H    0.887
   247   1 H    0.909 --   249 O    0.844
   248   1 H    0.898 --   249 O    0.825
   249   8 O    1.846 --   247 H    0.844   248 H    0.825
   250   1 H    0.892 --   252 O    0.818
   251   1 H    0.890 --   252 O    0.815
   252   8 O    1.912 --   250 H    0.818   251 H    0.815
   253   1 H    0.898 --   255 O    0.829
   254   1 H    0.891 --   255 O    0.819
   255   8 O    1.917 --   253 H    0.829   254 H    0.819
   256   1 H    0.889 --   258 O    0.811
   257   1 H    0.896 --   258 O    0.826
   258   8 O    1.917 --   257 H    0.826   256 H    0.811
   259   1 H    0.919 --   261 O    0.914
   260   1 H    0.883 --   261 O    0.799
   261   8 O    1.939 --   259 H    0.914   260 H    0.799
   262   1 H    0.891 --   264 O    0.817
   263   1 H    0.894 --   264 O    0.819
   264   8 O    1.916 --   263 H    0.819   262 H    0.817
   265   1 H    0.883 --   267 O    0.802
   266   1 H    0.908 --   267 O    0.903
   267   8 O    1.941 --   266 H    0.903   265 H    0.802
   268   1 H    0.901 --   270 O    0.831
   269   1 H    0.884 --   270 O    0.801
   270   8 O    1.911 --   268 H    0.831   269 H    0.801
   271   1 H    0.903 --   273 O    0.834
   272   1 H    0.882 --   273 O    0.798
   273   8 O    1.908 --   271 H    0.834   272 H    0.798
   274   1 H    0.890 --   276 O    0.813
   275   1 H    0.911 --   276 O    0.907
   276   8 O    1.938 --   275 H    0.907   274 H    0.813
   277   1 H    0.903 --   279 O    0.899
   278   1 H    0.892 --   279 O    0.887
   279   8 O    1.964 --   277 H    0.899   278 H    0.887
   280   1 H    0.921 --   282 O    0.864
   281   1 H    0.904 --   282 O    0.834
   282   8 O    1.769 --   280 H    0.864   281 H    0.834
   283   1 H    0.935 --   285 O    0.932
   284   1 H    0.881 --   285 O    0.797
   285   8 O    1.877 --   283 H    0.932   284 H    0.797
   286   1 H    0.902 --   288 O    0.831
   287   1 H    0.886 --   288 O    0.806
   288   8 O    1.913 --   286 H    0.831   287 H    0.806
   289   1 H    0.903 --   291 O    0.834
   290   1 H    0.884 --   291 O    0.804
   291   8 O    1.913 --   289 H    0.834   290 H    0.804
 ---------------------------------------------------------------------------

Topologies differ in total number of bonds
Writing topology from bond orders to xtbtopo.mol

molecular dipole:
                 x           y           z       tot (Debye)
 q only:        1.585      -2.745      50.632
   full:        2.204      -3.817      63.350     161.409
molecular quadrupole (traceless):
                xx          xy          yy          xz          yz          zz
 q only:      -50.156       6.763     -57.965    -184.270     319.165     108.121
  q+dip:      -62.768      16.952     -82.343    -233.826     404.998     145.111
   full:      -63.852      17.516     -84.077    -233.483     404.405     147.929


           -------------------------------------------------
          | TOTAL ENERGY             -493.069023706267 Eh   |
          | GRADIENT NORM               0.489824302032 Eh/α |
          | HOMO-LUMO GAP               0.755866616277 eV   |
           -------------------------------------------------
########################################################################
[WARNING] Runtime exception occurred
-2- restart_readRestart: Dimension missmatch in restart file.
-1- restart_readRestart: Number of electron missmatch in restart file.
########################################################################

------------------------------------------------------------------------
 * finished run on 2025/07/06 at 17:07:28.379     
------------------------------------------------------------------------
 total:
 * wall-time:     0 d,  0 h,  0 min,  1.409 sec
 *  cpu-time:     0 d,  0 h,  0 min,  1.405 sec
 * ratio c/w:     0.997 speedup
 SCF:
 * wall-time:     0 d,  0 h,  0 min,  1.336 sec
 *  cpu-time:     0 d,  0 h,  0 min,  1.336 sec
 * ratio c/w:     1.000 speedup

