
                                 *****************
                                 * O   R   C   A *
                                 *****************

                                            #,                                       
                                            ###                                      
                                            ####                                     
                                            #####                                    
                                            ######                                   
                                           ########,                                 
                                     ,,################,,,,,                         
                               ,,#################################,,                 
                          ,,##########################################,,             
                       ,#########################################, ''#####,          
                    ,#############################################,,   '####,        
                  ,##################################################,,,,####,       
                ,###########''''           ''''###############################       
              ,#####''   ,,,,##########,,,,          '''####'''          '####       
            ,##' ,,,,###########################,,,                        '##       
           ' ,,###''''                  '''############,,,                           
         ,,##''                                '''############,,,,        ,,,,,,###''
      ,#''                                            '''#######################'''  
     '                                                          ''''####''''         
             ,#######,   #######,   ,#######,      ##                                
            ,#'     '#,  ##    ##  ,#'     '#,    #''#        ,####,   ,####,        
            ##       ##  ##   ,#'  ##            #'  '#       #'       #'  '#        
            ##       ##  #######   ##           ,######,      #####,   #    #        
            '#,     ,#'  ##    ##  '#,     ,#' ,#      #,     #,   #   #,  ,#        
             '#######'   ##     ##  '#######'  #'      '#     '####' # '####'        



                #########################################################
                #                        -***-                          #
                #          Department of theory and spectroscopy        #
                #                                                       #
                #                      Frank Neese                      #
                #                                                       #
                #     Directorship, Architecture, Infrastructure        #
                #                    SHARK, DRIVERS                     #
                #        Core code/Algorithms in most modules           #
                #                                                       #
                #        Max Planck Institute fuer Kohlenforschung      #
                #                Kaiser Wilhelm Platz 1                 #
                #                 D-45470 Muelheim/Ruhr                 #
                #                      Germany                          #
                #                                                       #
                #                  All rights reserved                  #
                #                        -***-                          #
                #########################################################


                         Program Version 6.0.0  -   RELEASE  -


 With contributions from (in alphabetic order):
   Daniel Aravena         : Magnetic Suceptibility
   Michael Atanasov       : Ab Initio Ligand Field Theory (pilot matlab implementation)
   Alexander A. Auer      : GIAO ZORA, VPT2 properties, NMR spectrum
   Ute Becker             : All parallelization in ORCA, NUMFREQ, NUMCALC
   Giovanni Bistoni       : ED, misc. LED, open-shell LED, HFLD
   Martin Brehm           : Molecular dynamics
   Dmytro Bykov           : pre 5.0 version of the SCF Hessian
   Marcos Casanova-Páez   : Triplet and SCS-CIS(D). UHF-(DLPNO)-IP/EA/STEOM-CCSD. UHF-CVS-IP/STEOM-CCSD
   Vijay G. Chilkuri      : MRCI spin determinant printing, contributions to CSF-ICE
   Pauline Colinet        : FMM embedding
   Dipayan Datta          : RHF DLPNO-CCSD density
   Achintya Kumar Dutta   : EOM-CC, STEOM-CC
   Nicolas Foglia         : Exact transition moments, OPA infrastructure, MCD improvements
   Dmitry Ganyushin       : Spin-Orbit,Spin-Spin,Magnetic field MRCI
   Miquel Garcia          : C-PCM and meta-GGA Hessian, CCSD/C-PCM, Gaussian charge scheme
   Tiago L. C. Gouveia    : GS-ROHF, GS-ROCIS
   Yang Guo               : DLPNO-NEVPT2, F12-NEVPT2, CIM, IAO-localization
   Andreas Hansen         : Spin unrestricted coupled pair/coupled cluster methods
   Ingolf Harden          : AUTO-CI MPn and infrastructure 
   Benjamin Helmich-Paris : MC-RPA, TRAH-(SCF,CASSCF), AVAS, COSX integrals, SCF dyn. polar.
   Lee Huntington         : MR-EOM, pCC
   Robert Izsak           : Overlap fitted RIJCOSX, COSX-SCS-MP3, EOM
   Riya Kayal             : Wick's Theorem for AUTO-CI, AUTO-CI UHF-CCSDT
   Emily Kempfer          : AUTO-CI, RHF CISDT and CCSDT
   Christian Kollmar      : KDIIS, OOCD, Brueckner-CCSD(T), CCSD density, CASPT2, CASPT2-K, improved NEVPT2
   Axel Koslowski         : Symmetry handling
   Simone Kossmann        : Meta GGA functionals, TD-DFT gradient, OOMP2, (MP2 Hessian; deprecated post 5.0)
   Lucas Lang             : DCDCAS
   Marvin Lechner         : AUTO-CI (C++ implementation), FIC-MRCC
   Spencer Leger          : CASSCF response
   Dagmar Lenk            : GEPOL surface, SMD, ORCA-2-JSON
   Dimitrios Liakos       : Extrapolation schemes; Compound Job, initial MDCI parallelization
   Dimitrios Manganas     : Further ROCIS development; embedding schemes. LFT, Crystal Embedding
   Dimitrios Pantazis     : SARC Basis sets
   Anastasios Papadopoulos: AUTO-CI, single reference methods and gradients
   Taras Petrenko         : pre 6.0 DFT Hessian and TD-DFT gradient, (ASA, deprecated), ECA, 1-Electron XAS/XES, NRVS
   Peter Pinski           : DLPNO-MP2, DLPNO-MP2 Gradient
   Christoph Reimann      : Effective Core Potentials
   Marius Retegan         : Local ZFS, SOC
   Christoph Riplinger    : Optimizer, TS searches, QM/MM, DLPNO-CCSD(T), (RO)-DLPNO pert. Triples
   Michael Roemelt        : Original ROCIS implementation
   Masaaki Saitow         : Open-shell DLPNO-CCSD energy and density
   Barbara Sandhoefer     : DKH picture change effects
   Kantharuban Sivalingam : CASSCF convergence/infrastructure, NEVPT2 and variants, FIC-MRCI
   Bernardo de Souza      : ESD, SOC TD-DFT
   Georgi Stoychev        : AutoAux, RI-MP2 NMR, DLPNO-MP2 response, X2C
   Van Anh Tran           : RI-MP2 g-tensors
   Willem Van den Heuvel  : Paramagnetic NMR
   Zikuan Wang            : NOTCH, Electric field optimization 
   Frank Wennmohs         : Technical directorship and infrastructure
   Hang Xu                : AUTO-CI-Response properties 


 We gratefully acknowledge several colleagues who have allowed us to
 interface, adapt or use parts of their codes:
   Stefan Grimme, W. Hujo, H. Kruse, P. Pracht,  : VdW corrections, initial TS optimization,
                  C. Bannwarth, S. Ehlert,         DFT functionals, gCP, sTDA/sTD-DF
                  L. Wittmann, M. Mueller
   Ed Valeev, F. Pavosevic, A. Kumar             : LibInt (2-el integral package), F12 methods
   Garnet Chan, S. Sharma, J. Yang, R. Olivares  : DMRG
   Ulf Ekstrom                                   : XCFun DFT Library
   Mihaly Kallay                                 : mrcc  (arbitrary order and MRCC methods)
   Frank Weinhold                                : gennbo (NPA and NBO analysis)
   Simon Mueller                                 : openCOSMO-RS
   Christopher J. Cramer and Donald G. Truhlar   : smd solvation model
   Lars Goerigk                                  : TD-DFT with DH, B97 family of functionals
   V. Asgeirsson, H. Jonsson                     : NEB implementation
   FAccTs GmbH                                   : IRC, NEB, NEB-TS, DLPNO-Multilevel, CI-OPT
                                                   MM, QMMM, 2- and 3-layer-ONIOM, Crystal-QMMM,
                                                   LR-CPCM, SF, NACMEs, symmetry and pop. for TD-DFT,
                                                   nearIR, NL-DFT gradient (VV10), updates on ESD,
                                                   ML-optimized integration grids, MBIS, APM,
                                                   GOAT, DOCKER, SOLVATOR, interface openCOSMO-RS
   S Lehtola, MJT Oliveira, MAL Marques          : LibXC Library
   Liviu Ungur et al                             : ANISO software


 Your calculation uses the libint2 library for the computation of 2-el integrals
 For citations please refer to: http://libint.valeyev.net

 Your ORCA version has been built with support for libXC version: 6.2.2
 For citations please refer to: https://libxc.gitlab.io

 This ORCA versions uses:
   CBLAS   interface :  Fast vector & matrix operations
   LAPACKE interface :  Fast linear algebra routines
   SCALAPACK package :  Parallel linear algebra routines
   Shared memory     :  Shared parallel matrices




***************************************
The coordinates will be read from file: paracetamol.xyz
***************************************


Your calculation utilizes the DFT-NL dispersion correction.
Cite in your paper:
Vydrov, O. A.; Van Voorhis, T. J. Chem. Phys. 2010, 133, 244103
Hujo, W.; Grimme, S. J. Chem. Theory Comput. 2011, 7, 3866 
   

Warning: RI is on but no J-basis has been assigned. Assigning Def2/J (nothing to worry about!)
================================================================================

----- Orbital basis set information -----
Your calculation utilizes the basis: def2-SVP
   F. Weigend and R. Ahlrichs, Phys. Chem. Chem. Phys. 7, 3297 (2005).

----- AuxJ basis set information -----
Your calculation utilizes the auxiliary basis: def2/J
   F. Weigend, Phys. Chem. Chem. Phys. 8, 1057 (2006).

================================================================================
                                        WARNINGS
                       Please study these warnings very carefully!
================================================================================

Using LibXC functional ID 531 : wB97M-V exchange-correlation functional
[ 1]  N. Mardirossian and M. Head-Gordon.,  J. Chem. Phys. 144, 214110 (2016)
Using LibXC functional ID 531 : wB97M-V exchange-correlation functional
[ 1]  N. Mardirossian and M. Head-Gordon.,  J. Chem. Phys. 144, 214110 (2016)

WARNING: B97M-V or wB97M-V functional requested.
  ===> : libXC variant has now been activated.
         Any manually given DFX/HFX/RangeSep scaling parameters are IGNORED!

Your calculation utilizes LibXC
 by S Lehtola, C Steigemann, MJT Oliveira & MAL Marques
Please cite in your paper:
 S Lehtola, C Steigemann, MJT Oliveira & MAL Marques, SoftwareX, 7, (2018), 1.
   


================================================================================
                                       INPUT FILE
================================================================================
NAME = gas.inp
|  1> ! wB97M-V DEF2-SVP
|  2> 
|  3> * XYZFILE 0 1 paracetamol.xyz
|  4> 
|  5>                          ****END OF INPUT****
================================================================================

                       ****************************
                       * Single Point Calculation *
                       ****************************

---------------------------------
CARTESIAN COORDINATES (ANGSTROEM)
---------------------------------
  C      9.509770    3.334180    5.416700
  C     10.769650    3.348280    4.827190
  C     11.770520    2.496640    5.287680
  C     11.518080    1.635600    6.342790
  C     10.266070    1.639360    6.953370
  C      9.278700    2.482540    6.489050
  C      8.230730    4.762980    3.830200
  C      6.943540    5.542240    3.719710
  H     10.930190    3.957400    4.145070
  H     12.675450    2.556800    4.917880
  H     10.101140    1.062200    7.689780
  H      8.407080    2.481600    6.891420
  H     12.348340    0.517000    7.562040
  H      7.723980    4.239400    5.582120
  H      6.613770    5.480200    2.835770
  H      6.511850    5.574200    4.483580
  H      7.180870    6.589400    3.691610
  N      8.426430    4.169840    5.016880
  O     12.535840    0.799940    6.744520
  O      9.034950    4.678380    2.900910

----------------------------
CARTESIAN COORDINATES (A.U.)
----------------------------
  NO LB      ZA    FRAG     MASS         X           Y           Z
   0 C     6.0000    0    12.011   17.970861    6.300687   10.236080
   1 C     6.0000    0    12.011   20.351689    6.327332    9.122067
   2 C     6.0000    0    12.011   22.243059    4.717966    9.992267
   3 C     6.0000    0    12.011   21.766017    3.090836   11.986136
   4 C     6.0000    0    12.011   19.400061    3.097941   13.139965
   5 C     6.0000    0    12.011   17.534202    4.691321   12.262527
   6 C     6.0000    0    12.011   15.553826    9.000728    7.238029
   7 C     6.0000    0    12.011   13.121389   10.473316    7.029233
   8 H     1.0000    0     1.008   20.655066    7.478402    7.833047
   9 H     1.0000    0     1.008   23.953129    4.831652    9.293446
  10 H     1.0000    0     1.008   19.088388    2.007267   14.531578
  11 H     1.0000    0     1.008   15.887079    4.689544   13.022896
  12 H     1.0000    0     1.008   23.334981    0.976988   14.290185
  13 H     1.0000    0     1.008   14.596207    8.011305   10.548678
  14 H     1.0000    0     1.008   12.498214   10.356077    5.358829
  15 H     1.0000    0     1.008   12.305613   10.533711    8.472738
  16 H     1.0000    0     1.008   13.569878   12.452161    6.976132
  17 N     7.0000    0    14.007   15.923645    7.879856    9.480529
  18 O     8.0000    0    15.999   23.689304    1.511668   12.745296
  19 O     8.0000    0    15.999   17.073581    8.840857    5.481925

--------------------------------
INTERNAL COORDINATES (ANGSTROEM)
--------------------------------
 C      0   0   0     0.000000000000     0.00000000     0.00000000
 C      1   0   0     1.391049411236     0.00000000     0.00000000
 C      2   1   0     1.392509420650   120.30718008     0.00000000
 C      3   2   1     1.385053409548   120.07391973   359.59093382
 C      4   3   2     1.392964864632   119.73916447   359.05582038
 C      5   4   3     1.378928965429   119.84385721     1.14728006
 C      1   2   3     2.488854156354   100.92295982   189.67085232
 C      7   1   2     1.508745268029   141.41028587   196.13217759
 H      2   1   3     0.928486919886   118.33263416   182.13111088
 H      3   2   1     0.979423080441   120.10995802   184.73018807
 H      5   4   3     0.950060660484   119.61383761   181.39707114
 H      6   5   4     0.960012460805   120.55611142   178.83124116
 H      4   3   2     1.851261243072   142.71258511   192.91597857
 H      7   1   2     1.897407511659    52.43020620   195.06110454
 H      8   7   1     0.945487777869   109.39872089   215.67742266
 H      8   7   1     0.877994917183   111.99728664     7.19206160
 H      8   7   1     1.074085287349   108.47863736   111.31875744
 N     14   7   1     0.904306836035    40.23873981     4.59737463
 O     13   4   3     0.885183734600    45.05714030   332.06848566
 O      7   1   2     1.231871288934    96.08143995    17.65768514

---------------------------
INTERNAL COORDINATES (A.U.)
---------------------------
 C      0   0   0     0.000000000000     0.00000000     0.00000000
 C      1   0   0     2.628702425988     0.00000000     0.00000000
 C      2   1   0     2.631461443935   120.30718008     0.00000000
 C      3   2   1     2.617371624899   120.07391973   359.59093382
 C      4   3   2     2.632322108330   119.73916447   359.05582038
 C      5   4   3     2.605798102793   119.84385721     1.14728006
 C      1   2   3     4.703252742780   100.92295982   189.67085232
 C      7   1   2     2.851115362424   141.41028587   196.13217759
 H      2   1   3     1.754585997513   118.33263416   182.13111088
 H      3   2   1     1.850841391274   120.10995802   184.73018807
 H      5   4   3     1.795354458928   119.61383761   181.39707114
 H      6   5   4     1.814160636072   120.55611142   178.83124116
 H      4   3   2     3.498376751748   142.71258511   192.91597857
 H      7   1   2     3.585580561481    52.43020620   195.06110454
 H      8   7   1     1.786712963143   109.39872089   215.67742266
 H      8   7   1     1.659169940452   111.99728664     7.19206160
 H      8   7   1     2.029727037564   108.47863736   111.31875744
 N     14   7   1     1.708892261139    40.23873981     4.59737463
 O     13   4   3     1.672754836595    45.05714030   332.06848566
 O      7   1   2     2.327899368326    96.08143995    17.65768514

---------------------
BASIS SET INFORMATION
---------------------
There are 4 groups of distinct atoms

 Group   1 Type C   : 7s4p1d contracted to 3s2p1d pattern {511/31/1}
 Group   2 Type H   : 4s1p contracted to 2s1p pattern {31/1}
 Group   3 Type N   : 7s4p1d contracted to 3s2p1d pattern {511/31/1}
 Group   4 Type O   : 7s4p1d contracted to 3s2p1d pattern {511/31/1}

Atom   0C    basis set group =>   1
Atom   1C    basis set group =>   1
Atom   2C    basis set group =>   1
Atom   3C    basis set group =>   1
Atom   4C    basis set group =>   1
Atom   5C    basis set group =>   1
Atom   6C    basis set group =>   1
Atom   7C    basis set group =>   1
Atom   8H    basis set group =>   2
Atom   9H    basis set group =>   2
Atom  10H    basis set group =>   2
Atom  11H    basis set group =>   2
Atom  12H    basis set group =>   2
Atom  13H    basis set group =>   2
Atom  14H    basis set group =>   2
Atom  15H    basis set group =>   2
Atom  16H    basis set group =>   2
Atom  17N    basis set group =>   3
Atom  18O    basis set group =>   4
Atom  19O    basis set group =>   4
---------------------------------
AUXILIARY/J BASIS SET INFORMATION
---------------------------------
There are 4 groups of distinct atoms

 Group   1 Type C   : 12s5p4d2f1g contracted to 6s4p3d1f1g pattern {711111/2111/211/2/1}
 Group   2 Type H   : 5s2p1d contracted to 3s1p1d pattern {311/2/1}
 Group   3 Type N   : 12s5p4d2f1g contracted to 6s4p3d1f1g pattern {711111/2111/211/2/1}
 Group   4 Type O   : 12s5p4d2f1g contracted to 6s4p3d1f1g pattern {711111/2111/211/2/1}

Atom   0C    basis set group =>   1
Atom   1C    basis set group =>   1
Atom   2C    basis set group =>   1
Atom   3C    basis set group =>   1
Atom   4C    basis set group =>   1
Atom   5C    basis set group =>   1
Atom   6C    basis set group =>   1
Atom   7C    basis set group =>   1
Atom   8H    basis set group =>   2
Atom   9H    basis set group =>   2
Atom  10H    basis set group =>   2
Atom  11H    basis set group =>   2
Atom  12H    basis set group =>   2
Atom  13H    basis set group =>   2
Atom  14H    basis set group =>   2
Atom  15H    basis set group =>   2
Atom  16H    basis set group =>   2
Atom  17N    basis set group =>   3
Atom  18O    basis set group =>   4
Atom  19O    basis set group =>   4
------------------------------------------------------------------------------
                             ORCA STARTUP CALCULATIONS
                           -- RI-GTO INTEGRALS CHOSEN --
------------------------------------------------------------------------------
------------------------------------------------------------------------------
                   ___                                                        
                  /   \      - P O W E R E D   B Y -                         
                 /     \                                                     
                 |  |  |   _    _      __       _____    __    __             
                 |  |  |  | |  | |    /  \     |  _  \  |  |  /  |          
                  \  \/   | |  | |   /    \    | | | |  |  | /  /          
                 / \  \   | |__| |  /  /\  \   | |_| |  |  |/  /          
                |  |  |   |  __  | /  /__\  \  |    /   |      \           
                |  |  |   | |  | | |   __   |  |    \   |  |\   \          
                \     /   | |  | | |  |  |  |  | |\  \  |  | \   \       
                 \___/    |_|  |_| |__|  |__|  |_| \__\ |__|  \__/        
                                                                              
                      - O R C A' S   B I G   F R I E N D -                    
                                      &                                       
                       - I N T E G R A L  F E E D E R -                       
                                                                              
 v1 FN, 2020, v2 2021, v3 2022-2024                                           
------------------------------------------------------------------------------


----------------------
SHARK INTEGRAL PACKAGE
----------------------

Number of atoms                             ...     20
Number of basis functions                   ...    199
Number of shells                            ...     93
Maximum angular momentum                    ...      2
Integral batch strategy                     ... SHARK/LIBINT Hybrid
RI-J (if used) integral strategy            ... SPLIT-RIJ (Revised 2003 algorithm where possible)
Printlevel                                  ...      1
Contraction scheme used                     ... SEGMENTED contraction
Prescreening option                         ... SCHWARTZ
   Thresh                                   ... 1.000e-10
   Tcut                                     ... 1.000e-11
   Tpresel                                  ... 1.000e-11 
Coulomb Range Separation                    ... NOT USED
Exchange Range Separation                   ... Long Range
   Mu parameter                             ... 3.000e-01
   Scaling (regular/separated)              ... 1.500e-01 8.500e-01
Multipole approximations                    ... NOT USED
Finite Nucleus Model                        ... NOT USED
CABS basis                                  ... NOT available
Auxiliary Coulomb fitting basis             ... AVAILABLE
   # of basis functions in Aux-J            ...    638
   # of shells in Aux-J                     ...    210
   Maximum angular momentum in Aux-J        ...      4
Auxiliary J/K fitting basis                 ... NOT available
Auxiliary Correlation fitting basis         ... NOT available
Auxiliary 'external' fitting basis          ... NOT available

Checking pre-screening integrals            ... done (  0.0 sec) Dimension = 93
Check shell pair data                       ... done (  0.0 sec)
Shell pair information
Shell pair cut-off parameter TPreSel        ...   1.0e-11
Total number of shell pairs                 ...      4371
Shell pairs after pre-screening             ...      3729
Total number of primitive shell pairs       ...     15923
Primitive shell pairs kept                  ...      9594
          la=0 lb=0:   1138 shell pairs
          la=1 lb=0:   1366 shell pairs
          la=1 lb=1:    426 shell pairs
          la=2 lb=0:    465 shell pairs
          la=2 lb=1:    280 shell pairs
          la=2 lb=2:     54 shell pairs

Calculating one electron integrals          ... done (  0.0 sec)
Calculating RI/J V-Matrix + Cholesky decomp.... done (  0.0 sec)
Calculating Nuclear repulsion               ... done (  0.0 sec) ENN=    579.223914276081 Eh

Diagonalization of the overlap matrix:
Smallest eigenvalue                        ... 2.468e-04
Time for diagonalization                   ...    0.002 sec
Threshold for overlap eigenvalues          ... 1.000e-07
Number of eigenvalues below threshold      ... 0
Time for construction of square roots      ...    0.002 sec
Total time needed                          ...    0.005 sec

-------------------
DFT GRID GENERATION
-------------------

General Integration Accuracy     IntAcc      ... 4.388
Radial Grid Type                 RadialGrid  ... OptM3 with GC (2021)
Angular Grid (max. ang.)         AngularGrid ... 4 (Lebedev-302)
Angular grid pruning method      GridPruning ... 4 (adaptive)
Weight generation scheme         WeightScheme... mBecke (2022)
Basis function cutoff            BFCut       ... 1.0000e-10
Integration weight cutoff        WCut        ... 1.0000e-14
Partially contracted basis set               ... off
Rotationally invariant grid construction     ... off
Angular grids for H and He will be reduced by one unit

Total number of grid points                  ...    95157
Total number of batches                      ...     1499
Average number of points per batch           ...       63
Average number of grid points per atom       ...     4758

--------------------
COSX GRID GENERATION
--------------------

GRIDX 1
-------
General Integration Accuracy     IntAcc      ... 3.816
Radial Grid Type                 RadialGrid  ... OptM3 with GC (2021)
Angular Grid (max. ang.)         AngularGrid ... 1 (Lebedev-50)
Angular grid pruning method      GridPruning ... 4 (adaptive)
Weight generation scheme         WeightScheme... mBecke (2022)
Basis function cutoff            BFCut       ... 1.0000e-10
Integration weight cutoff        WCut        ... 1.0000e-14
Partially contracted basis set               ... on
Rotationally invariant grid construction     ... off
Angular grids for H and He will be reduced by one unit

Total number of grid points                  ...    12144
Total number of batches                      ...      106
Average number of points per batch           ...      114
Average number of grid points per atom       ...      607
UseSFitting                                  ... on

GRIDX 2
-------
General Integration Accuracy     IntAcc      ... 4.020
Radial Grid Type                 RadialGrid  ... OptM3 with GC (2021)
Angular Grid (max. ang.)         AngularGrid ... 2 (Lebedev-110)
Angular grid pruning method      GridPruning ... 4 (adaptive)
Weight generation scheme         WeightScheme... mBecke (2022)
Basis function cutoff            BFCut       ... 1.0000e-10
Integration weight cutoff        WCut        ... 1.0000e-14
Partially contracted basis set               ... on
Rotationally invariant grid construction     ... off
Angular grids for H and He will be reduced by one unit

Total number of grid points                  ...    26569
Total number of batches                      ...      217
Average number of points per batch           ...      122
Average number of grid points per atom       ...     1328
UseSFitting                                  ... on

GRIDX 3
-------
General Integration Accuracy     IntAcc      ... 4.338
Radial Grid Type                 RadialGrid  ... OptM3 with GC (2021)
Angular Grid (max. ang.)         AngularGrid ... 3 (Lebedev-194)
Angular grid pruning method      GridPruning ... 4 (adaptive)
Weight generation scheme         WeightScheme... mBecke (2022)
Basis function cutoff            BFCut       ... 1.0000e-10
Integration weight cutoff        WCut        ... 1.0000e-14
Partially contracted basis set               ... on
Rotationally invariant grid construction     ... off
Angular grids for H and He will be reduced by one unit

Total number of grid points                  ...    58450
Total number of batches                      ...      467
Average number of points per batch           ...      125
Average number of grid points per atom       ...     2922
UseSFitting                                  ... on
Initializing property integral containers    ... done (  0.0 sec)

SHARK setup successfully completed in   0.9 seconds

Maximum memory used throughout the entire STARTUP-calculation: 38.6 MB
-------------------------------------------------------------------------------
                                 ORCA GUESS
                   Start orbitals & Density for SCF / CASSCF
-------------------------------------------------------------------------------

------------
SCF SETTINGS
------------
Hamiltonian:
 Density Functional     Method          .... DFT(GTOs)
  Functional kind                       .... Exchange-Correlation
  Functional name                       .... wB97M-V exchange-correlation functional
  Functional family                     .... Hybrid MGGA
  Functional refs                              
    [ 0] N. Mardirossian and M. Head-Gordon.,  J. Chem. Phys. 144, 214110 (2016), doi: 10.1063/1.4952647
  Fraction of HF Exchange (short range) .... 0.1500
  Fraction of HF Exchange (long range)  .... 1.0000
  Range separation parameter mu         .... 0.3000
  Functional external parameters        .... 17
    Parameter  0 _cx00      =  8.500000e-01 : u^00 coefficient for exchange
    Parameter  1 _cx01      =  1.007000e+00 : u^01 coefficient for exchange
    Parameter  2 _cx10      =  2.590000e-01 : u^10 coefficient for exchange
    Parameter  3 _css00     =  4.430000e-01 : u^00 coefficient for same-spin correlation
    Parameter  4 _css04     = -1.437000e+00 : u^04 coefficient for same-spin correlation
    Parameter  5 _css10     = -4.535000e+00 : u^10 coefficient for same-spin correlation
    Parameter  6 _css20     = -3.390000e+00 : u^20 coefficient for same-spin correlation
    Parameter  7 _css43     =  4.278000e+00 : u^43 coefficient for same-spin correlation
    Parameter  8 _cos00     =  1.000000e+00 : u^00 coefficient for opposite-spin correlation
    Parameter  9 _cos10     =  1.358000e+00 : u^10 coefficient for opposite-spin correlation
    Parameter 10 _cos20     =  2.924000e+00 : u^20 coefficient for opposite-spin correlation
    Parameter 11 _cos21     = -8.812000e+00 : u^21 coefficient for opposite-spin correlation
    Parameter 12 _cos60     = -1.390000e+00 : u^60 coefficient for opposite-spin correlation
    Parameter 13 _cos61     =  9.142000e+00 : u^61 coefficient for opposite-spin correlation
    Parameter 14 _alpha     =  1.000000e+00 : fraction of HF exchange
    Parameter 15 _beta      = -8.500000e-01 : fraction of short-range exchange
    Parameter 16 _omega     =  3.000000e-01 : range-separation constant
 Long-range corrected/Screened/Range-Separated Hybrid DFT is turned on
   Amount of maximum screened exact exchange              ....  0.850000
   Range separation parameter mu (erf(mu*r12)/r12)        ....  0.300000
   NL short-range parameter             ....  6.000000
   NL long-range parameter              ....  0.010000
 RI-approximation to the Coulomb term is turned on
   Number of AuxJ basis functions       .... 638
   RIJ-COSX (HFX calculated with COS-X)).... on


General Settings:
 Integral files         IntName         .... gas
 Hartree-Fock type      HFTyp           .... RHF
 Total Charge           Charge          ....    0
 Multiplicity           Mult            ....    1
 Number of Electrons    NEL             ....   80
 Basis Dimension        Dim             ....  199
 Nuclear Repulsion      ENuc            ....    579.2239142761 Eh

Convergence Acceleration:
 AO-DIIS                CNVDIIS         .... on
   Start iteration      DIISMaxIt       ....    12
   Startup error        DIISStart       ....  0.200000
   # of expansion vecs  DIISMaxEq       ....     5
   Bias factor          DIISBfac        ....   1.050
   Max. coefficient     DIISMaxC        ....  10.000
 MO-DIIS                CNVKDIIS        .... off
 Trust-Rad. Augm. Hess. CNVTRAH         .... auto
   Auto Start mean grad. ratio tolernc. ....  1.125000
   Auto Start start iteration           ....    50
   Auto Start num. interpolation iter.  ....    10
   Max. Number of Micro iterations      ....    24
   Max. Number of Macro iterations      .... Maxiter - #DIIS iter
   Number of Davidson start vectors     ....     2
   Converg. threshold    (grad. norm)   ....   5.000e-05
   Grad. Scal. Fac. for Micro threshold ....   0.100
   Minimum threshold for Micro iter.    ....   1.000e-02
   NR start threshold (gradient norm)   ....   1.000e-04
   Initial trust radius                 ....   0.400
   Minimum AH scaling param. (alpha)    ....   1.000
   Maximum AH scaling param. (alpha)    .... 1000.000
   Quad. conv. algorithm                .... NR
   White noise on init. David. guess    .... on
   Maximum white noise                  ....   0.010
   Pseudo random numbers                .... off
   Inactive MOs                         .... canonical
   Orbital update algorithm             .... Taylor
   Preconditioner                       .... Diag
   Full preconditioner red. dimension   ....   250
 SOSCF                  CNVSOSCF        .... on
   Start iteration      SOSCFMaxIt      ....   150
   Startup grad/error   SOSCFStart      ....  0.003300
   Hessian update       SOSCFHessUp     .... L-BFGS
 Level Shifting         CNVShift        .... on
   Level shift para.    LevelShift      ....    0.2500
   Turn off err/grad.   ShiftErr        ....    0.0010
 Zerner damping         CNVZerner       .... off
 Static damping         CNVDamp         .... on
   Fraction old density DampFac         ....    0.7000
   Max. Damping (<1)    DampMax         ....    0.9800
   Min. Damping (>=0)   DampMin         ....    0.0000
   Turn off err/grad.   DampErr         ....    0.1000

SCF Procedure:
 Maximum # iterations   MaxIter         ....   125
 SCF integral mode      SCFMode         .... Direct
   Integral package                     .... SHARK and LIBINT hybrid scheme
 Reset frequency        DirectResetFreq ....    20
 Integral Threshold     Thresh          ....  1.000e-10 Eh
 Primitive CutOff       TCut            ....  1.000e-11 Eh

Convergence Tolerance:
 Convergence Check Mode ConvCheckMode   .... Total+1el-Energy
 Convergence forced     ConvForced      .... 0
 Energy Change          TolE            ....  1.000e-06 Eh
 1-El. energy change                    ....  1.000e-03 Eh
 Orbital Gradient       TolG            ....  5.000e-05
 Orbital Rotation angle TolX            ....  5.000e-05
 DIIS Error             TolErr          ....  1.000e-06

------------------------------
INITIAL GUESS: MODEL POTENTIAL
------------------------------
Loading Hartree-Fock densities                     ... done
Calculating cut-offs                               ... done
Initializing the effective Hamiltonian             ... done
Setting up the integral package (SHARK)            ... done
Starting the Coulomb interaction                   ... done (   0.1 sec)
Making the grid                                    ... done (   0.1 sec)
Mapping shells                                     ... done
Starting the XC term evaluation                    ... done (   0.1 sec)
  promolecular density results
     # of electrons  =     80.001169902
     EX              =    -66.660756328
     EC              =     -2.693802027
     EX+EC           =    -69.354558355
Transforming the Hamiltonian                       ... done (   0.0 sec)
Diagonalizing the Hamiltonian                      ... done (   0.0 sec)
Back transforming the eigenvectors                 ... done (   0.0 sec)
Now organizing SCF variables                       ... done
                      ------------------
                      INITIAL GUESS DONE (   0.3 sec)
                      ------------------
             **** ENERGY FILE WAS UPDATED (gas.en.tmp) ****
Finished Guess after   0.4 sec
Maximum memory used throughout the entire GUESS-calculation: 19.6 MB

-------------------------------------------------------------------------------------------
                                      ORCA LEAN-SCF
                              memory conserving SCF solver
-------------------------------------------------------------------------------------------

----------------------------------------D-I-I-S--------------------------------------------
Iteration    Energy (Eh)           Delta-E    RMSDP     MaxDP     DIISErr   Damp  Time(sec)
-------------------------------------------------------------------------------------------
               ***  Starting incremental Fock matrix formation  ***
    1    -514.7188186315047460     0.00e+00  3.32e-03  7.54e-02  2.59e-01  0.700   4.9
    2    -514.8553266065944172    -1.37e-01  2.40e-03  5.15e-02  1.27e-01  0.700   2.5
                               ***Turning on AO-DIIS***
    3    -514.9247943846785347    -6.95e-02  1.17e-03  2.14e-02  6.88e-02  0.700   2.3
    4    -514.9667514038094396    -4.20e-02  2.38e-03  3.88e-02  4.29e-02  0.000   2.3
    5    -515.0576145333989189    -9.09e-02  2.43e-04  6.89e-03  8.14e-03  0.000   2.4
    6    -515.0578584167287772    -2.44e-04  1.06e-04  2.81e-03  4.19e-03  0.000   2.0
                              *** Initializing SOSCF ***
---------------------------------------S-O-S-C-F--------------------------------------
Iteration    Energy (Eh)           Delta-E    RMSDP     MaxDP     MaxGrad    Time(sec)
--------------------------------------------------------------------------------------
    7    -515.0579040848926979    -4.57e-05  5.87e-05  1.58e-03  5.95e-04     1.9
               *** Restarting incremental Fock matrix formation ***
    8    -515.0578878967999117     1.62e-05  4.88e-05  1.28e-03  1.90e-04     4.8
    9    -515.0578907251776855    -2.83e-06  3.48e-05  7.95e-04  2.03e-04     3.2
   10    -515.0578914383752362    -7.13e-07  1.28e-05  2.16e-04  9.88e-05     3.2
                 **** Energy Check signals convergence ****

               *****************************************************
               *                     SUCCESS                       *
               *           SCF CONVERGED AFTER  10 CYCLES          *
               *****************************************************


------------------
NL GRID GENERATION
------------------

General Integration Accuracy     IntAcc      ... 4.004
Radial Grid Type                 RadialGrid  ... OptM3 with GC (2021)
Angular Grid (max. ang.)         AngularGrid ... 2 (Lebedev-110)
Angular grid pruning method      GridPruning ... 4 (adaptive)
Weight generation scheme         WeightScheme... mBecke (2022)
Basis function cutoff            BFCut       ... 1.0000e-10
Integration weight cutoff        WCut        ... 1.0000e-14
Partially contracted basis set               ... off
Rotationally invariant grid construction     ... off
Angular grids for H and He will be reduced by one unit

Total number of grid points                  ...    30366
Total number of batches                      ...      484
Average number of points per batch           ...       62
Average number of grid points per atom       ...     1518
Final grid set up in    0.1 sec

-------------------------------------------------------------------------------
                    post-SCF DFT-NL dispersion correction                      
-------------------------------------------------------------------------------

SCF Energy:     -515.057891438 
NL    Energy:      0.307476706 
SC+NL Energy:   -514.750414733 
NL done in  :              1.4 sec
-------------------------------------------------------------------------------
Recomputing exchange energy using gridx3       ... done (    8.060 sec)
Old exchange energy                            :    -20.926611220 Eh
New exchange energy                            :    -20.926666580 Eh
Exchange energy change after final integration :     -0.000055360 Eh
Total energy after final integration           :   -514.750470093 Eh
             **** ENERGY FILE WAS UPDATED (gas.en.tmp) ****

----------------
TOTAL SCF ENERGY
----------------

Total Energy       :       -514.75047009306013 Eh          -14007.07240 eV

Components:
Nuclear Repulsion  :        579.22391427608136 Eh           15761.48401 eV
Electronic Energy  :      -1094.28180571445682 Eh          -29776.92176 eV
One Electron Energy:      -1846.39470841512525 Eh          -50242.95432 eV
Two Electron Energy:        752.11290270066854 Eh           20466.03256 eV

Virial components:
Potential Energy   :      -1026.83309400418307 Eh          -27941.54901 eV
Kinetic Energy     :        512.08262391112294 Eh           13934.47661 eV
Virial Ratio       :          2.00520979634412

DFT components:
N(Alpha)           :       39.999994622860 electrons
N(Beta)            :       39.999994622860 electrons
N(Total)           :       79.999989245720 electrons
NL Energy, E(C,NL) :        0.307476705795 Eh       
E(XC)              :      -50.193676977421 Eh       

---------------
SCF CONVERGENCE
---------------

  Last Energy change         ...    7.1320e-07  Tolerance :   1.0000e-06
  Last MAX-Density change    ...    2.1619e-04  Tolerance :   1.0000e-05
  Last RMS-Density change    ...    1.2817e-05  Tolerance :   1.0000e-06
  Last DIIS Error            ...    5.9487e-04  Tolerance :   1.0000e-06
  Last Orbital Gradient      ...    9.8839e-05  Tolerance :   5.0000e-05
  Last Orbital Rotation      ...    1.5519e-04  Tolerance :   5.0000e-05


----------------
ORBITAL ENERGIES
----------------

  NO   OCC          E(Eh)            E(eV) 
   0   2.0000     -22.007700      -598.8600 
   1   2.0000     -21.945426      -597.1654 
   2   2.0000     -16.818452      -457.6533 
   3   2.0000     -12.359714      -336.3249 
   4   2.0000     -12.318278      -335.1974 
   5   2.0000     -12.302303      -334.7627 
   6   2.0000     -12.259185      -333.5894 
   7   2.0000     -12.253731      -333.4410 
   8   2.0000     -12.249396      -333.3230 
   9   2.0000     -12.245959      -333.2295 
  10   2.0000     -12.236942      -332.9841 
  11   2.0000      -1.728527       -47.0356 
  12   2.0000      -1.681136       -45.7460 
  13   2.0000      -1.542715       -41.9794 
  14   2.0000      -1.379982       -37.5512 
  15   2.0000      -1.302816       -35.4514 
  16   2.0000      -1.280510       -34.8444 
  17   2.0000      -1.268904       -34.5286 
  18   2.0000      -1.189853       -32.3775 
  19   2.0000      -1.149256       -31.2728 
  20   2.0000      -1.138528       -30.9809 
  21   2.0000      -1.093975       -29.7686 
  22   2.0000      -1.057140       -28.7662 
  23   2.0000      -1.041397       -28.3378 
  24   2.0000      -1.016171       -27.6514 
  25   2.0000      -0.967527       -26.3277 
  26   2.0000      -0.962319       -26.1860 
  27   2.0000      -0.955503       -26.0006 
  28   2.0000      -0.944295       -25.6956 
  29   2.0000      -0.939648       -25.5691 
  30   2.0000      -0.922634       -25.1061 
  31   2.0000      -0.911733       -24.8095 
  32   2.0000      -0.908931       -24.7333 
  33   2.0000      -0.850244       -23.1363 
  34   2.0000      -0.832476       -22.6528 
  35   2.0000      -0.828379       -22.5413 
  36   2.0000      -0.807423       -21.9711 
  37   2.0000      -0.759207       -20.6591 
  38   2.0000      -0.647853       -17.6290 
  39   2.0000      -0.637629       -17.3508 
  40   0.0000      -0.292916        -7.9707 
  41   0.0000      -0.251685        -6.8487 
  42   0.0000      -0.239246        -6.5102 
  43   0.0000      -0.145218        -3.9516 
  44   0.0000      -0.129183        -3.5153 
  45   0.0000      -0.085778        -2.3341 
  46   0.0000      -0.056226        -1.5300 
  47   0.0000      -0.041084        -1.1180 
  48   0.0000      -0.028959        -0.7880 
  49   0.0000       0.009475         0.2578 
  50   0.0000       0.011027         0.3000 
*Only the first 10 virtual orbitals were printed.

                    ********************************
                    * MULLIKEN POPULATION ANALYSIS *
                    ********************************

-----------------------
MULLIKEN ATOMIC CHARGES
-----------------------
   0 C :    0.113184
   1 C :    0.132219
   2 C :    0.057356
   3 C :    0.164966
   4 C :    0.057804
   5 C :    0.080383
   6 C :   -0.038452
   7 C :    0.388330
   8 H :   -0.141544
   9 H :   -0.087404
  10 H :   -0.137785
  11 H :   -0.130158
  12 H :    0.129005
  13 H :    0.055070
  14 H :   -0.037428
  15 H :   -0.138779
  16 H :    0.007216
  17 N :   -0.022161
  18 O :   -0.171612
  19 O :   -0.280212
Sum of atomic charges:   -0.0000000

--------------------------------
MULLIKEN REDUCED ORBITAL CHARGES
--------------------------------
  0 C s       :     2.909111  s :     2.909111
      pz      :     1.028320  p :     2.920673
      px      :     0.940699
      py      :     0.951654
      dz2     :     0.010020  d :     0.057031
      dxz     :     0.012538
      dyz     :     0.006716
      dx2y2   :     0.013372
      dxy     :     0.014386

  1 C s       :     3.199858  s :     3.199858
      pz      :     0.854719  p :     2.632776
      px      :     0.943220
      py      :     0.834837
      dz2     :     0.004797  d :     0.035147
      dxz     :     0.007940
      dyz     :     0.005890
      dx2y2   :     0.009146
      dxy     :     0.007374

  2 C s       :     3.190068  s :     3.190068
      pz      :     0.970217  p :     2.718973
      px      :     0.773496
      py      :     0.975259
      dz2     :     0.006862  d :     0.033602
      dxz     :     0.006373
      dyz     :     0.006056
      dx2y2   :     0.008658
      dxy     :     0.005653

  3 C s       :     2.930725  s :     2.930725
      pz      :     1.032097  p :     2.828074
      px      :     0.882352
      py      :     0.913625
      dz2     :     0.012735  d :     0.076235
      dxz     :     0.016250
      dyz     :     0.009926
      dx2y2   :     0.018814
      dxy     :     0.018510

  4 C s       :     3.157548  s :     3.157548
      pz      :     0.874485  p :     2.749995
      px      :     0.952801
      py      :     0.922708
      dz2     :     0.005191  d :     0.034654
      dxz     :     0.007443
      dyz     :     0.006001
      dx2y2   :     0.008803
      dxy     :     0.007215

  5 C s       :     3.161535  s :     3.161535
      pz      :     0.964224  p :     2.722138
      px      :     0.774728
      py      :     0.983185
      dz2     :     0.007303  d :     0.035945
      dxz     :     0.007761
      dyz     :     0.006166
      dx2y2   :     0.009345
      dxy     :     0.005370

  6 C s       :     3.124614  s :     3.124614
      pz      :     0.929445  p :     2.792357
      px      :     0.989111
      py      :     0.873801
      dz2     :     0.040372  d :     0.121480
      dxz     :     0.023696
      dyz     :     0.026843
      dx2y2   :     0.015207
      dxy     :     0.015362

  7 C s       :     2.640592  s :     2.640592
      pz      :     0.895207  p :     2.944975
      px      :     1.014669
      py      :     1.035100
      dz2     :     0.008085  d :     0.026102
      dxz     :     0.007702
      dyz     :     0.000437
      dx2y2   :     0.005519
      dxy     :     0.004360

  8 H s       :     1.108217  s :     1.108217
      pz      :     0.015099  p :     0.033328
      px      :     0.005768
      py      :     0.012461

  9 H s       :     1.058138  s :     1.058138
      pz      :     0.007211  p :     0.029266
      px      :     0.016585
      py      :     0.005470

 10 H s       :     1.106246  s :     1.106246
      pz      :     0.014187  p :     0.031539
      px      :     0.005949
      py      :     0.011403

 11 H s       :     1.099441  s :     1.099441
      pz      :     0.008340  p :     0.030717
      px      :     0.016328
      py      :     0.006049

 12 H s       :     0.790670  s :     0.790670
      pz      :     0.035878  p :     0.080325
      px      :     0.020335
      py      :     0.024112

 13 H s       :     0.892841  s :     0.892841
      pz      :     0.017714  p :     0.052089
      px      :     0.020166
      py      :     0.014209

 14 H s       :     1.000785  s :     1.000785
      pz      :     0.020027  p :     0.036643
      px      :     0.007935
      py      :     0.008681

 15 H s       :     1.097304  s :     1.097304
      pz      :     0.018835  p :     0.041474
      px      :     0.011860
      py      :     0.010779

 16 H s       :     0.964342  s :     0.964342
      pz      :     0.007249  p :     0.028442
      px      :     0.005990
      py      :     0.015204

 17 N s       :     3.232156  s :     3.232156
      pz      :     1.131351  p :     3.768035
      px      :     1.158268
      py      :     1.478416
      dz2     :     0.004061  d :     0.021970
      dxz     :     0.007425
      dyz     :     0.003766
      dx2y2   :     0.003922
      dxy     :     0.002796

 18 O s       :     3.630205  s :     3.630205
      pz      :     1.334091  p :     4.526195
      px      :     1.587884
      py      :     1.604219
      dz2     :     0.004631  d :     0.015212
      dxz     :     0.002925
      dyz     :     0.001408
      dx2y2   :     0.002341
      dxy     :     0.003907

 19 O s       :     3.745427  s :     3.745427
      pz      :     1.481841  p :     4.517439
      px      :     1.492577
      py      :     1.543022
      dz2     :     0.004066  d :     0.017346
      dxz     :     0.006189
      dyz     :     0.002931
      dx2y2   :     0.002151
      dxy     :     0.002010



                     *******************************
                     * LOEWDIN POPULATION ANALYSIS *
                     *******************************

----------------------
LOEWDIN ATOMIC CHARGES
----------------------
   0 C :    0.033882
   1 C :    0.026996
   2 C :   -0.012000
   3 C :    0.066987
   4 C :   -0.039114
   5 C :   -0.007235
   6 C :    0.096254
   7 C :   -0.019381
   8 H :   -0.015949
   9 H :    0.004987
  10 H :   -0.012106
  11 H :   -0.009641
  12 H :    0.030296
  13 H :    0.028441
  14 H :    0.017286
  15 H :   -0.029325
  16 H :    0.067513
  17 N :    0.038419
  18 O :   -0.028096
  19 O :   -0.238215

-------------------------------
LOEWDIN REDUCED ORBITAL CHARGES
-------------------------------
  0 C s       :     2.819437  s :     2.819437
      pz      :     1.039107  p :     3.009303
      px      :     0.990267
      py      :     0.979929
      dz2     :     0.023425  d :     0.137378
      dxz     :     0.030463
      dyz     :     0.016778
      dx2y2   :     0.032433
      dxy     :     0.034279

  1 C s       :     2.804392  s :     2.804392
      pz      :     1.025314  p :     3.071392
      px      :     1.029950
      py      :     1.016128
      dz2     :     0.012263  d :     0.097220
      dxz     :     0.022926
      dyz     :     0.016303
      dx2y2   :     0.024899
      dxy     :     0.020828

  2 C s       :     2.821140  s :     2.821140
      pz      :     1.026749  p :     3.098145
      px      :     1.051611
      py      :     1.019785
      dz2     :     0.017206  d :     0.092716
      dxz     :     0.018428
      dyz     :     0.017033
      dx2y2   :     0.023275
      dxy     :     0.016774

  3 C s       :     2.830899  s :     2.830899
      pz      :     1.022544  p :     2.932244
      px      :     0.964995
      py      :     0.944705
      dz2     :     0.028276  d :     0.169870
      dxz     :     0.035938
      dyz     :     0.021884
      dx2y2   :     0.042427
      dxy     :     0.041344

  4 C s       :     2.808328  s :     2.808328
      pz      :     1.047449  p :     3.133669
      px      :     1.043014
      py      :     1.043206
      dz2     :     0.013886  d :     0.097116
      dxz     :     0.022075
      dyz     :     0.016846
      dx2y2   :     0.024085
      dxy     :     0.020224

  5 C s       :     2.808937  s :     2.808937
      pz      :     1.030199  p :     3.099109
      px      :     1.051595
      py      :     1.017315
      dz2     :     0.018686  d :     0.099188
      dxz     :     0.022011
      dyz     :     0.017146
      dx2y2   :     0.025163
      dxy     :     0.016182

  6 C s       :     2.833586  s :     2.833586
      pz      :     0.954636  p :     2.802408
      px      :     0.979667
      py      :     0.868105
      dz2     :     0.092082  d :     0.267752
      dxz     :     0.055346
      dyz     :     0.058632
      dx2y2   :     0.031227
      dxy     :     0.030464

  7 C s       :     2.728645  s :     2.728645
      pz      :     1.087075  p :     3.206192
      px      :     1.063539
      py      :     1.055578
      dz2     :     0.032145  d :     0.084544
      dxz     :     0.022183
      dyz     :     0.001254
      dx2y2   :     0.015249
      dxy     :     0.013712

  8 H s       :     0.910210  s :     0.910210
      pz      :     0.042807  p :     0.105739
      px      :     0.024587
      py      :     0.038346

  9 H s       :     0.904525  s :     0.904525
      pz      :     0.025074  p :     0.090489
      px      :     0.044755
      py      :     0.020660

 10 H s       :     0.913690  s :     0.913690
      pz      :     0.040753  p :     0.098416
      px      :     0.023302
      py      :     0.034360

 11 H s       :     0.914768  s :     0.914768
      pz      :     0.028104  p :     0.094873
      px      :     0.043760
      py      :     0.023009

 12 H s       :     0.747722  s :     0.747722
      pz      :     0.097149  p :     0.221982
      px      :     0.059684
      py      :     0.065149

 13 H s       :     0.807429  s :     0.807429
      pz      :     0.051905  p :     0.164130
      px      :     0.061787
      py      :     0.050438

 14 H s       :     0.881668  s :     0.881668
      pz      :     0.045078  p :     0.101046
      px      :     0.027731
      py      :     0.028237

 15 H s       :     0.904768  s :     0.904768
      pz      :     0.044471  p :     0.124556
      px      :     0.041381
      py      :     0.038705

 16 H s       :     0.861612  s :     0.861612
      pz      :     0.015503  p :     0.070875
      px      :     0.018431
      py      :     0.036942

 17 N s       :     2.993461  s :     2.993461
      pz      :     1.238597  p :     3.907644
      px      :     1.238659
      py      :     1.430388
      dz2     :     0.012478  d :     0.060476
      dxz     :     0.021559
      dyz     :     0.009998
      dx2y2   :     0.009294
      dxy     :     0.007146

 18 O s       :     3.371259  s :     3.371259
      pz      :     1.434423  p :     4.627483
      px      :     1.599915
      py      :     1.593146
      dz2     :     0.010488  d :     0.029354
      dxz     :     0.005170
      dyz     :     0.003569
      dx2y2   :     0.003448
      dxy     :     0.006679

 19 O s       :     3.554232  s :     3.554232
      pz      :     1.551557  p :     4.654629
      px      :     1.557756
      py      :     1.545316
      dz2     :     0.006479  d :     0.029354
      dxz     :     0.012697
      dyz     :     0.003790
      dx2y2   :     0.003658
      dxy     :     0.002730



                      *****************************
                      * MAYER POPULATION ANALYSIS *
                      *****************************

  NA   - Mulliken gross atomic population
  ZA   - Total nuclear charge
  QA   - Mulliken gross atomic charge
  VA   - Mayer's total valence
  BVA  - Mayer's bonded valence
  FA   - Mayer's free valence

  ATOM       NA         ZA         QA         VA         BVA        FA
  0 C      5.8868     6.0000     0.1132     3.9029     3.9029    -0.0000
  1 C      5.8678     6.0000     0.1322     3.8820     3.8820     0.0000
  2 C      5.9426     6.0000     0.0574     3.8303     3.8303     0.0000
  3 C      5.8350     6.0000     0.1650     3.9349     3.9349    -0.0000
  4 C      5.9422     6.0000     0.0578     3.8286     3.8286    -0.0000
  5 C      5.9196     6.0000     0.0804     3.8351     3.8351    -0.0000
  6 C      6.0385     6.0000    -0.0385     4.4825     4.4825    -0.0000
  7 C      5.6117     6.0000     0.3883     3.7091     3.7091    -0.0000
  8 H      1.1415     1.0000    -0.1415     1.0418     1.0418     0.0000
  9 H      1.0874     1.0000    -0.0874     0.9976     0.9976     0.0000
 10 H      1.1378     1.0000    -0.1378     0.9828     0.9828    -0.0000
 11 H      1.1302     1.0000    -0.1302     0.9815     0.9815     0.0000
 12 H      0.8710     1.0000     0.1290     1.0441     1.0441    -0.0000
 13 H      0.9449     1.0000     0.0551     1.0174     1.0174     0.0000
 14 H      1.0374     1.0000    -0.0374     1.0271     1.0271    -0.0000
 15 H      1.1388     1.0000    -0.1388     0.9858     0.9858    -0.0000
 16 H      0.9928     1.0000     0.0072     1.0109     1.0109    -0.0000
 17 N      7.0222     7.0000    -0.0222     3.1393     3.1393    -0.0000
 18 O      8.1716     8.0000    -0.1716     2.2194     2.2194    -0.0000
 19 O      8.2802     8.0000    -0.2802     2.2252     2.2252    -0.0000

  Mayer bond orders larger than 0.100000
B(  0-C ,  1-C ) :   1.3910 B(  0-C ,  5-C ) :   1.3647 B(  0-C , 17-N ) :   1.0150 
B(  1-C ,  2-C ) :   1.3636 B(  1-C ,  8-H ) :   1.0337 B(  2-C ,  3-C ) :   1.3657 
B(  2-C ,  9-H ) :   1.0208 B(  3-C ,  4-C ) :   1.3255 B(  3-C , 18-O ) :   1.1575 
B(  4-C ,  5-C ) :   1.3821 B(  4-C , 10-H ) :   1.0140 B(  5-C , 11-H ) :   1.0097 
B(  6-C ,  7-C ) :   1.0198 B(  6-C , 17-N ) :   1.1691 B(  6-C , 19-O ) :   2.0565 
B(  7-C , 14-H ) :   0.9204 B(  7-C , 15-H ) :   0.9006 B(  7-C , 16-H ) :   0.8999 
B( 12-H , 18-O ) :   1.0068 B( 13-H , 17-N ) :   0.9408 

-------
TIMINGS
-------

Total SCF time: 0 days 0 hours 0 min 39 sec 

Total time                  ....      39.252 sec
Sum of individual times     ....      37.800 sec  ( 96.3%)

SCF preparation             ....       0.069 sec  (  0.2%)
Fock matrix formation       ....      37.208 sec  ( 94.8%)
  Startup                   ....       0.018 sec  (  0.0% of F)
  Split-RI-J                ....       1.330 sec  (  3.6% of F)
  Chain of spheres X        ....      28.872 sec  ( 77.6% of F)
  XC integration            ....       8.367 sec  ( 22.5% of F)
    Basis function eval.    ....       1.307 sec  ( 15.6% of XC)
    Density eval.           ....       1.916 sec  ( 22.9% of XC)
    XC-Functional eval.     ....       1.599 sec  ( 19.1% of XC)
    XC-Potential eval.      ....       3.299 sec  ( 39.4% of XC)
Diagonalization             ....       0.000 sec  (  0.0%)
Density matrix formation    ....       0.110 sec  (  0.3%)
Total Energy calculation    ....       0.062 sec  (  0.2%)
Population analysis         ....       0.027 sec  (  0.1%)
Orbital Transformation      ....       0.017 sec  (  0.0%)
Orbital Orthonormalization  ....       0.000 sec  (  0.0%)
DIIS solution               ....       0.139 sec  (  0.4%)
SOSCF solution              ....       0.049 sec  (  0.1%)
Grid generation             ....       0.118 sec  (  0.3%)
Finished LeanSCF after  39.3 sec

Maximum memory used throughout the entire LEANSCF-calculation: 22.5 MB

-------------------------   --------------------
FINAL SINGLE POINT ENERGY      -514.750470093060
-------------------------   --------------------


------------------------------------------------------------------------------
                              ORCA PROPERTY CALCULATIONS
------------------------------------------------------------------------------

GBWName                                 ... gas.gbw
Number of atoms                         ...     20
Number of basis functions               ...    199
Max core memory                         ...   1024 MB

Electric properties:
Dipole moment                           ... YES
Quadrupole moment                       ...  NO
Static polarizability (Dipole/Dipole)   ...  NO
Static polarizability (Dipole/Quad.)    ...  NO
Static polarizability (Quad./Quad.)     ...  NO
Static polarizability (Velocity)        ...  NO

Atomic electric properties:
Dipole moment                           ...  NO
Quadrupole moment                       ...  NO
Static polarizability                   ...  NO

Choice of electric origin               ... Center of mass
Position of electric origin             ...    18.584091     6.024921     9.846379

General magnetic properties:
Magnetizability                         ...  NO

EPR properties:
g-Tensor (aka g-matrix)                 ...  NO
Zero-Field splitting spin-orbit         ...  NO
Zero-field splitting spin-spin          ...  NO
Hyperfine couplings                     ...  NO (   0 nuclei)
Quadrupole couplings                    ...  NO (   0 nuclei)
Contact density                         ...  NO (   0 nuclei)

NMR properties:
Chemical shifts                         ...  NO (   0 nuclei)
Spin-rotation constants                 ...  NO (   0 nuclei)
Spin-spin couplings                     ...  NO (   0 nuclei,    0 pairs)

Choice of magnetic origin               ... GIAO
Position of magnetic origin             ...     0.000000     0.000000     0.000000

Properties with geometric perturbations:
SCF Hessian                             ...  NO
IR spectrum                             ...  NO
VCD spectrum                            ...  NO
X-ray spectroscopy properties:
SCF XES/XAS/RIXS spectra                ...  NO


-------------
DIPOLE MOMENT
-------------

Method             : SCF
Type of density    : Electron Density
Multiplicity       :   1
Irrep              :   0
Energy             :  -514.7504700930601302 Eh
Relativity type    : 
Basis              : AO
                                X                 Y                 Z
Electronic contribution:      4.513288573      -3.424844449       0.727335761
Nuclear contribution   :     -5.623527571       3.523362818       0.836470409
                        -----------------------------------------
Total Dipole Moment    :     -1.110238998       0.098518368       1.563806170
                        -----------------------------------------
Magnitude (a.u.)       :      1.920371381
Magnitude (Debye)      :      4.881196135



--------------------
Rotational spectrum 
--------------------
 
Rotational constants in cm-1:             0.124045             0.018345             0.016158 
Rotational constants in MHz :          3718.767912           549.975046           484.412568 

Dipole components along the rotational axes: 
x,y,z [a.u.] :    -0.028346    -1.852578    -0.504954 
x,y,z [Debye]:    -0.072049    -4.708878    -1.283492 

 

Dipole moment calculation done in   0.0 sec 

Maximum memory used throughout the entire PROP-calculation: 10.9 MB

--------------------------------
SUGGESTED CITATIONS FOR THIS RUN
--------------------------------

Below you find a list of papers that are relevant to this ORCA run
We neither can nor want to force you to cite these papers, but we appreciate if you do
You receive ORCA, which is the product of decades of hard work by many enthusiastic individuals, for free
The only thing we kindly ask in return is that you cite our papers,
We deeply appreciate it, if you show your appreciation for ORCA by not just citing the generic ORCA reference.

Please note that relegating all ORCA citations to the supporting information does *not* help us.
SI sections are not indexed - citations you put there will not count into any citation statistics
But we need these citations in order to attract the funding resources that allow us to do what we are doing

Therefore, if you are a happy ORCA user, please consider citing a few of the papers listed below in the main body of your paper

In addition to the list printed below, the program has created the file gas.bibtex that contains the list in bibtex format
You can import this file easily into all common literature databanks and citation aid programs


List of essential papers. We consider these as the minimum necessary citations

  1. Neese,F.
     Software update: the ORCA program system, version 5.0
     WIRES Comput. Molec. Sci., 2022 12(1)e1606
     doi.org/10.1002/wcms.1606

List of papers to cite with high priority. The work reported in these papers was absolutely
necessary for this run to complete.
Our perspective: the developers of density functionals and basis sets usually get cited in chemistry papers
Good! But without the algorithms to do something with them, the functionals or basis sets would not do anything.
Hence, in our opinion, the algorithm design and method developments papers are equally worthy of getting cited

  1. Neese,F.
     An improvement of the resolution of the identity approximation for the formation of the Coulomb matrix
     J. Comp. Chem., 2003 24(14)1740-1747
     doi.org/10.1002/jcc.10318
  2. Neese,F.; Wennmohs,F.; Hansen,A.; Becker,U.
     Efficient, approximate and parallel Hartree-Fock and hybrid DFT calculations. A 'chain-of-spheres' algorithm for the Hartree-Fock exchange
     Chem. Phys., 2009 356(1-3)98-109
     doi.org/10.1016/j.chemphys.2008.10.036
  3. Helmich-Paris,B.; de Souza,B.; Neese,F.; Izsák,R.
     An improved chain of spheres for exchange algorithm
     J. Chem. Phys., 2021 155 104109
     doi.org/doi: 10.1063/5.0058766.
  4. Neese,F.
     The SHARK Integral Generation and Digestion System
     J. Comp. Chem., 2022  1-16
     doi.org/10.1002/jcc.26942
  5. Lehtola,S.; Steigemann,C.; Oliveira,M.; Marques,M.
     Recent developments in Libxc - A comprehensive library of functionals for density functional theory
     Software X, 2018 7 
     doi.org/10.1016/j.softx.2017.11.002

List of suggested additional citations. These are papers that are important in the 'surrounding' of 
of this run, or papers that preceded the highly important papers. If you like your results we are grateful for a citation.

  1. Izsak,R.; Neese,F.
     An overlap fitted chain of spheres exchange method
     J. Chem. Phys., 2011 135 144105
     doi.org/10.1063/1.3646921
  2. Izsak,R.; Hansen,A.; Neese,F.
     The resolution of identity and chain of spheres approximations for the LPNO-CCSD singles Fock term
     Molec. Phys., 2012 110 2413-2417
     doi.org/10.1080/00268976.2012.687466
  3. Neese,F.
     The ORCA program system
     WIRES Comput. Molec. Sci., 2012 2(1)73-78
     doi.org/10.1002/wcms.81
  4. Izsak,R.; Neese,F.; Klopper,W.
     Robust fitting techniques in the chain of spheres approximation to the Fock exchange: The role of the complementary space
     J. Chem. Phys., 2013 139 
     doi.org/10.1063/1.4819264
  5. Neese,F.
     Software update: the ORCA program system, version 4.0
     WIRES Comput. Molec. Sci., 2018 8(1)1-6
     doi.org/10.1002/wcms.1327
  6. Neese,F.; Wennmohs,F.; Becker,U.; Riplinger,C.
     The ORCA quantum chemistry program package
     J. Chem. Phys., 2020 152 Art. No. L224108
     doi.org/10.1063/5.0004608

List of optional additional citations

  1. Neese,F.
     Approximate second-order SCF convergence for spin unrestricted wavefunctions
     Chem. Phys. Lett., 2000 325(1-3)93-98
     doi.org/10.1016/s0009-2614(00)00662-x

Timings for individual modules:

Sum of individual times          ...       40.788 sec (=   0.680 min)
Startup calculation              ...        0.956 sec (=   0.016 min)   2.3 %
SCF iterations                   ...       39.743 sec (=   0.662 min)  97.4 %
Property calculations            ...        0.089 sec (=   0.001 min)   0.2 %
                             ****ORCA TERMINATED NORMALLY****
TOTAL RUN TIME: 0 days 0 hours 0 minutes 40 seconds 923 msec
