
                                 *****************
                                 * O   R   C   A *
                                 *****************

                                            #,                                       
                                            ###                                      
                                            ####                                     
                                            #####                                    
                                            ######                                   
                                           ########,                                 
                                     ,,################,,,,,                         
                               ,,#################################,,                 
                          ,,##########################################,,             
                       ,#########################################, ''#####,          
                    ,#############################################,,   '####,        
                  ,##################################################,,,,####,       
                ,###########''''           ''''###############################       
              ,#####''   ,,,,##########,,,,          '''####'''          '####       
            ,##' ,,,,###########################,,,                        '##       
           ' ,,###''''                  '''############,,,                           
         ,,##''                                '''############,,,,        ,,,,,,###''
      ,#''                                            '''#######################'''  
     '                                                          ''''####''''         
             ,#######,   #######,   ,#######,      ##                                
            ,#'     '#,  ##    ##  ,#'     '#,    #''#        ,####,   ,####,        
            ##       ##  ##   ,#'  ##            #'  '#       #'       #'  '#        
            ##       ##  #######   ##           ,######,      #####,   #    #        
            '#,     ,#'  ##    ##  '#,     ,#' ,#      #,     #,   #   #,  ,#        
             '#######'   ##     ##  '#######'  #'      '#     '####' # '####'        



                #########################################################
                #                        -***-                          #
                #          Department of theory and spectroscopy        #
                #                                                       #
                #                      Frank Neese                      #
                #                                                       #
                #     Directorship, Architecture, Infrastructure        #
                #                    SHARK, DRIVERS                     #
                #        Core code/Algorithms in most modules           #
                #                                                       #
                #        Max Planck Institute fuer Kohlenforschung      #
                #                Kaiser Wilhelm Platz 1                 #
                #                 D-45470 Muelheim/Ruhr                 #
                #                      Germany                          #
                #                                                       #
                #                  All rights reserved                  #
                #                        -***-                          #
                #########################################################


                         Program Version 6.0.0  -   RELEASE  -


 With contributions from (in alphabetic order):
   Daniel Aravena         : Magnetic Suceptibility
   Michael Atanasov       : Ab Initio Ligand Field Theory (pilot matlab implementation)
   Alexander A. Auer      : GIAO ZORA, VPT2 properties, NMR spectrum
   Ute Becker             : All parallelization in ORCA, NUMFREQ, NUMCALC
   Giovanni Bistoni       : ED, misc. LED, open-shell LED, HFLD
   Martin Brehm           : Molecular dynamics
   Dmytro Bykov           : pre 5.0 version of the SCF Hessian
   Marcos Casanova-Páez   : Triplet and SCS-CIS(D). UHF-(DLPNO)-IP/EA/STEOM-CCSD. UHF-CVS-IP/STEOM-CCSD
   Vijay G. Chilkuri      : MRCI spin determinant printing, contributions to CSF-ICE
   Pauline Colinet        : FMM embedding
   Dipayan Datta          : RHF DLPNO-CCSD density
   Achintya Kumar Dutta   : EOM-CC, STEOM-CC
   Nicolas Foglia         : Exact transition moments, OPA infrastructure, MCD improvements
   Dmitry Ganyushin       : Spin-Orbit,Spin-Spin,Magnetic field MRCI
   Miquel Garcia          : C-PCM and meta-GGA Hessian, CCSD/C-PCM, Gaussian charge scheme
   Tiago L. C. Gouveia    : GS-ROHF, GS-ROCIS
   Yang Guo               : DLPNO-NEVPT2, F12-NEVPT2, CIM, IAO-localization
   Andreas Hansen         : Spin unrestricted coupled pair/coupled cluster methods
   Ingolf Harden          : AUTO-CI MPn and infrastructure 
   Benjamin Helmich-Paris : MC-RPA, TRAH-(SCF,CASSCF), AVAS, COSX integrals, SCF dyn. polar.
   Lee Huntington         : MR-EOM, pCC
   Robert Izsak           : Overlap fitted RIJCOSX, COSX-SCS-MP3, EOM
   Riya Kayal             : Wick's Theorem for AUTO-CI, AUTO-CI UHF-CCSDT
   Emily Kempfer          : AUTO-CI, RHF CISDT and CCSDT
   Christian Kollmar      : KDIIS, OOCD, Brueckner-CCSD(T), CCSD density, CASPT2, CASPT2-K, improved NEVPT2
   Axel Koslowski         : Symmetry handling
   Simone Kossmann        : Meta GGA functionals, TD-DFT gradient, OOMP2, (MP2 Hessian; deprecated post 5.0)
   Lucas Lang             : DCDCAS
   Marvin Lechner         : AUTO-CI (C++ implementation), FIC-MRCC
   Spencer Leger          : CASSCF response
   Dagmar Lenk            : GEPOL surface, SMD, ORCA-2-JSON
   Dimitrios Liakos       : Extrapolation schemes; Compound Job, initial MDCI parallelization
   Dimitrios Manganas     : Further ROCIS development; embedding schemes. LFT, Crystal Embedding
   Dimitrios Pantazis     : SARC Basis sets
   Anastasios Papadopoulos: AUTO-CI, single reference methods and gradients
   Taras Petrenko         : pre 6.0 DFT Hessian and TD-DFT gradient, (ASA, deprecated), ECA, 1-Electron XAS/XES, NRVS
   Peter Pinski           : DLPNO-MP2, DLPNO-MP2 Gradient
   Christoph Reimann      : Effective Core Potentials
   Marius Retegan         : Local ZFS, SOC
   Christoph Riplinger    : Optimizer, TS searches, QM/MM, DLPNO-CCSD(T), (RO)-DLPNO pert. Triples
   Michael Roemelt        : Original ROCIS implementation
   Masaaki Saitow         : Open-shell DLPNO-CCSD energy and density
   Barbara Sandhoefer     : DKH picture change effects
   Kantharuban Sivalingam : CASSCF convergence/infrastructure, NEVPT2 and variants, FIC-MRCI
   Bernardo de Souza      : ESD, SOC TD-DFT
   Georgi Stoychev        : AutoAux, RI-MP2 NMR, DLPNO-MP2 response, X2C
   Van Anh Tran           : RI-MP2 g-tensors
   Willem Van den Heuvel  : Paramagnetic NMR
   Zikuan Wang            : NOTCH, Electric field optimization 
   Frank Wennmohs         : Technical directorship and infrastructure
   Hang Xu                : AUTO-CI-Response properties 


 We gratefully acknowledge several colleagues who have allowed us to
 interface, adapt or use parts of their codes:
   Stefan Grimme, W. Hujo, H. Kruse, P. Pracht,  : VdW corrections, initial TS optimization,
                  C. Bannwarth, S. Ehlert,         DFT functionals, gCP, sTDA/sTD-DF
                  L. Wittmann, M. Mueller
   Ed Valeev, F. Pavosevic, A. Kumar             : LibInt (2-el integral package), F12 methods
   Garnet Chan, S. Sharma, J. Yang, R. Olivares  : DMRG
   Ulf Ekstrom                                   : XCFun DFT Library
   Mihaly Kallay                                 : mrcc  (arbitrary order and MRCC methods)
   Frank Weinhold                                : gennbo (NPA and NBO analysis)
   Simon Mueller                                 : openCOSMO-RS
   Christopher J. Cramer and Donald G. Truhlar   : smd solvation model
   Lars Goerigk                                  : TD-DFT with DH, B97 family of functionals
   V. Asgeirsson, H. Jonsson                     : NEB implementation
   FAccTs GmbH                                   : IRC, NEB, NEB-TS, DLPNO-Multilevel, CI-OPT
                                                   MM, QMMM, 2- and 3-layer-ONIOM, Crystal-QMMM,
                                                   LR-CPCM, SF, NACMEs, symmetry and pop. for TD-DFT,
                                                   nearIR, NL-DFT gradient (VV10), updates on ESD,
                                                   ML-optimized integration grids, MBIS, APM,
                                                   GOAT, DOCKER, SOLVATOR, interface openCOSMO-RS
   S Lehtola, MJT Oliveira, MAL Marques          : LibXC Library
   Liviu Ungur et al                             : ANISO software


 Your calculation uses the libint2 library for the computation of 2-el integrals
 For citations please refer to: http://libint.valeyev.net

 Your ORCA version has been built with support for libXC version: 6.2.2
 For citations please refer to: https://libxc.gitlab.io

 This ORCA versions uses:
   CBLAS   interface :  Fast vector & matrix operations
   LAPACKE interface :  Fast linear algebra routines
   SCALAPACK package :  Parallel linear algebra routines
   Shared memory     :  Shared parallel matrices




***************************************
The coordinates will be read from file: paracetamol.xyz
***************************************


Your calculation utilizes the DFT-NL dispersion correction.
Cite in your paper:
Vydrov, O. A.; Van Voorhis, T. J. Chem. Phys. 2010, 133, 244103
Hujo, W.; Grimme, S. J. Chem. Theory Comput. 2011, 7, 3866 
   

Your calculation utilizes the SMD solvation module
Please cite in your paper:
A.V. Marenich, C.J. Cramer, D.G. Truhlar J. Phys. Chem. B, 113, (2009), 6378 

Warning: RI is on but no J-basis has been assigned. Assigning Def2/J (nothing to worry about!)
================================================================================

----- Orbital basis set information -----
Your calculation utilizes the basis: def2-SVP
   F. Weigend and R. Ahlrichs, Phys. Chem. Chem. Phys. 7, 3297 (2005).

----- AuxJ basis set information -----
Your calculation utilizes the auxiliary basis: def2/J
   F. Weigend, Phys. Chem. Chem. Phys. 8, 1057 (2006).

================================================================================
                                        WARNINGS
                       Please study these warnings very carefully!
================================================================================

Using LibXC functional ID 531 : wB97M-V exchange-correlation functional
[ 1]  N. Mardirossian and M. Head-Gordon.,  J. Chem. Phys. 144, 214110 (2016)
Using LibXC functional ID 531 : wB97M-V exchange-correlation functional
[ 1]  N. Mardirossian and M. Head-Gordon.,  J. Chem. Phys. 144, 214110 (2016)

WARNING: B97M-V or wB97M-V functional requested.
  ===> : libXC variant has now been activated.
         Any manually given DFX/HFX/RangeSep scaling parameters are IGNORED!

Your calculation utilizes LibXC
 by S Lehtola, C Steigemann, MJT Oliveira & MAL Marques
Please cite in your paper:
 S Lehtola, C Steigemann, MJT Oliveira & MAL Marques, SoftwareX, 7, (2018), 1.
   


================================================================================
                                       INPUT FILE
================================================================================
NAME = smd.inp
|  1> ! wB97M-V DEF2-SVP SMD(WATER)
|  2> 
|  3> * XYZFILE 0 1 paracetamol.xyz
|  4> 
|  5>                          ****END OF INPUT****
================================================================================

                       ****************************
                       * Single Point Calculation *
                       ****************************

---------------------------------
CARTESIAN COORDINATES (ANGSTROEM)
---------------------------------
  C      9.509770    3.334180    5.416700
  C     10.769650    3.348280    4.827190
  C     11.770520    2.496640    5.287680
  C     11.518080    1.635600    6.342790
  C     10.266070    1.639360    6.953370
  C      9.278700    2.482540    6.489050
  C      8.230730    4.762980    3.830200
  C      6.943540    5.542240    3.719710
  H     10.930190    3.957400    4.145070
  H     12.675450    2.556800    4.917880
  H     10.101140    1.062200    7.689780
  H      8.407080    2.481600    6.891420
  H     12.348340    0.517000    7.562040
  H      7.723980    4.239400    5.582120
  H      6.613770    5.480200    2.835770
  H      6.511850    5.574200    4.483580
  H      7.180870    6.589400    3.691610
  N      8.426430    4.169840    5.016880
  O     12.535840    0.799940    6.744520
  O      9.034950    4.678380    2.900910

----------------------------
CARTESIAN COORDINATES (A.U.)
----------------------------
  NO LB      ZA    FRAG     MASS         X           Y           Z
   0 C     6.0000    0    12.011   17.970861    6.300687   10.236080
   1 C     6.0000    0    12.011   20.351689    6.327332    9.122067
   2 C     6.0000    0    12.011   22.243059    4.717966    9.992267
   3 C     6.0000    0    12.011   21.766017    3.090836   11.986136
   4 C     6.0000    0    12.011   19.400061    3.097941   13.139965
   5 C     6.0000    0    12.011   17.534202    4.691321   12.262527
   6 C     6.0000    0    12.011   15.553826    9.000728    7.238029
   7 C     6.0000    0    12.011   13.121389   10.473316    7.029233
   8 H     1.0000    0     1.008   20.655066    7.478402    7.833047
   9 H     1.0000    0     1.008   23.953129    4.831652    9.293446
  10 H     1.0000    0     1.008   19.088388    2.007267   14.531578
  11 H     1.0000    0     1.008   15.887079    4.689544   13.022896
  12 H     1.0000    0     1.008   23.334981    0.976988   14.290185
  13 H     1.0000    0     1.008   14.596207    8.011305   10.548678
  14 H     1.0000    0     1.008   12.498214   10.356077    5.358829
  15 H     1.0000    0     1.008   12.305613   10.533711    8.472738
  16 H     1.0000    0     1.008   13.569878   12.452161    6.976132
  17 N     7.0000    0    14.007   15.923645    7.879856    9.480529
  18 O     8.0000    0    15.999   23.689304    1.511668   12.745296
  19 O     8.0000    0    15.999   17.073581    8.840857    5.481925

--------------------------------
INTERNAL COORDINATES (ANGSTROEM)
--------------------------------
 C      0   0   0     0.000000000000     0.00000000     0.00000000
 C      1   0   0     1.391049411236     0.00000000     0.00000000
 C      2   1   0     1.392509420650   120.30718008     0.00000000
 C      3   2   1     1.385053409548   120.07391973   359.59093382
 C      4   3   2     1.392964864632   119.73916447   359.05582038
 C      5   4   3     1.378928965429   119.84385721     1.14728006
 C      1   2   3     2.488854156354   100.92295982   189.67085232
 C      7   1   2     1.508745268029   141.41028587   196.13217759
 H      2   1   3     0.928486919886   118.33263416   182.13111088
 H      3   2   1     0.979423080441   120.10995802   184.73018807
 H      5   4   3     0.950060660484   119.61383761   181.39707114
 H      6   5   4     0.960012460805   120.55611142   178.83124116
 H      4   3   2     1.851261243072   142.71258511   192.91597857
 H      7   1   2     1.897407511659    52.43020620   195.06110454
 H      8   7   1     0.945487777869   109.39872089   215.67742266
 H      8   7   1     0.877994917183   111.99728664     7.19206160
 H      8   7   1     1.074085287349   108.47863736   111.31875744
 N     14   7   1     0.904306836035    40.23873981     4.59737463
 O     13   4   3     0.885183734600    45.05714030   332.06848566
 O      7   1   2     1.231871288934    96.08143995    17.65768514

---------------------------
INTERNAL COORDINATES (A.U.)
---------------------------
 C      0   0   0     0.000000000000     0.00000000     0.00000000
 C      1   0   0     2.628702425988     0.00000000     0.00000000
 C      2   1   0     2.631461443935   120.30718008     0.00000000
 C      3   2   1     2.617371624899   120.07391973   359.59093382
 C      4   3   2     2.632322108330   119.73916447   359.05582038
 C      5   4   3     2.605798102793   119.84385721     1.14728006
 C      1   2   3     4.703252742780   100.92295982   189.67085232
 C      7   1   2     2.851115362424   141.41028587   196.13217759
 H      2   1   3     1.754585997513   118.33263416   182.13111088
 H      3   2   1     1.850841391274   120.10995802   184.73018807
 H      5   4   3     1.795354458928   119.61383761   181.39707114
 H      6   5   4     1.814160636072   120.55611142   178.83124116
 H      4   3   2     3.498376751748   142.71258511   192.91597857
 H      7   1   2     3.585580561481    52.43020620   195.06110454
 H      8   7   1     1.786712963143   109.39872089   215.67742266
 H      8   7   1     1.659169940452   111.99728664     7.19206160
 H      8   7   1     2.029727037564   108.47863736   111.31875744
 N     14   7   1     1.708892261139    40.23873981     4.59737463
 O     13   4   3     1.672754836595    45.05714030   332.06848566
 O      7   1   2     2.327899368326    96.08143995    17.65768514

---------------------
BASIS SET INFORMATION
---------------------
There are 4 groups of distinct atoms

 Group   1 Type C   : 7s4p1d contracted to 3s2p1d pattern {511/31/1}
 Group   2 Type H   : 4s1p contracted to 2s1p pattern {31/1}
 Group   3 Type N   : 7s4p1d contracted to 3s2p1d pattern {511/31/1}
 Group   4 Type O   : 7s4p1d contracted to 3s2p1d pattern {511/31/1}

Atom   0C    basis set group =>   1
Atom   1C    basis set group =>   1
Atom   2C    basis set group =>   1
Atom   3C    basis set group =>   1
Atom   4C    basis set group =>   1
Atom   5C    basis set group =>   1
Atom   6C    basis set group =>   1
Atom   7C    basis set group =>   1
Atom   8H    basis set group =>   2
Atom   9H    basis set group =>   2
Atom  10H    basis set group =>   2
Atom  11H    basis set group =>   2
Atom  12H    basis set group =>   2
Atom  13H    basis set group =>   2
Atom  14H    basis set group =>   2
Atom  15H    basis set group =>   2
Atom  16H    basis set group =>   2
Atom  17N    basis set group =>   3
Atom  18O    basis set group =>   4
Atom  19O    basis set group =>   4
---------------------------------
AUXILIARY/J BASIS SET INFORMATION
---------------------------------
There are 4 groups of distinct atoms

 Group   1 Type C   : 12s5p4d2f1g contracted to 6s4p3d1f1g pattern {711111/2111/211/2/1}
 Group   2 Type H   : 5s2p1d contracted to 3s1p1d pattern {311/2/1}
 Group   3 Type N   : 12s5p4d2f1g contracted to 6s4p3d1f1g pattern {711111/2111/211/2/1}
 Group   4 Type O   : 12s5p4d2f1g contracted to 6s4p3d1f1g pattern {711111/2111/211/2/1}

Atom   0C    basis set group =>   1
Atom   1C    basis set group =>   1
Atom   2C    basis set group =>   1
Atom   3C    basis set group =>   1
Atom   4C    basis set group =>   1
Atom   5C    basis set group =>   1
Atom   6C    basis set group =>   1
Atom   7C    basis set group =>   1
Atom   8H    basis set group =>   2
Atom   9H    basis set group =>   2
Atom  10H    basis set group =>   2
Atom  11H    basis set group =>   2
Atom  12H    basis set group =>   2
Atom  13H    basis set group =>   2
Atom  14H    basis set group =>   2
Atom  15H    basis set group =>   2
Atom  16H    basis set group =>   2
Atom  17N    basis set group =>   3
Atom  18O    basis set group =>   4
Atom  19O    basis set group =>   4
------------------------------------------------------------------------------
                             ORCA STARTUP CALCULATIONS
                           -- RI-GTO INTEGRALS CHOSEN --
------------------------------------------------------------------------------
------------------------------------------------------------------------------
                   ___                                                        
                  /   \      - P O W E R E D   B Y -                         
                 /     \                                                     
                 |  |  |   _    _      __       _____    __    __             
                 |  |  |  | |  | |    /  \     |  _  \  |  |  /  |          
                  \  \/   | |  | |   /    \    | | | |  |  | /  /          
                 / \  \   | |__| |  /  /\  \   | |_| |  |  |/  /          
                |  |  |   |  __  | /  /__\  \  |    /   |      \           
                |  |  |   | |  | | |   __   |  |    \   |  |\   \          
                \     /   | |  | | |  |  |  |  | |\  \  |  | \   \       
                 \___/    |_|  |_| |__|  |__|  |_| \__\ |__|  \__/        
                                                                              
                      - O R C A' S   B I G   F R I E N D -                    
                                      &                                       
                       - I N T E G R A L  F E E D E R -                       
                                                                              
 v1 FN, 2020, v2 2021, v3 2022-2024                                           
------------------------------------------------------------------------------


----------------------
SHARK INTEGRAL PACKAGE
----------------------

Number of atoms                             ...     20
Number of basis functions                   ...    199
Number of shells                            ...     93
Maximum angular momentum                    ...      2
Integral batch strategy                     ... SHARK/LIBINT Hybrid
RI-J (if used) integral strategy            ... SPLIT-RIJ (Revised 2003 algorithm where possible)
Printlevel                                  ...      1
Contraction scheme used                     ... SEGMENTED contraction
Prescreening option                         ... SCHWARTZ
   Thresh                                   ... 1.000e-10
   Tcut                                     ... 1.000e-11
   Tpresel                                  ... 1.000e-11 
Coulomb Range Separation                    ... NOT USED
Exchange Range Separation                   ... Long Range
   Mu parameter                             ... 3.000e-01
   Scaling (regular/separated)              ... 1.500e-01 8.500e-01
Multipole approximations                    ... NOT USED
Finite Nucleus Model                        ... NOT USED
CABS basis                                  ... NOT available
Auxiliary Coulomb fitting basis             ... AVAILABLE
   # of basis functions in Aux-J            ...    638
   # of shells in Aux-J                     ...    210
   Maximum angular momentum in Aux-J        ...      4
Auxiliary J/K fitting basis                 ... NOT available
Auxiliary Correlation fitting basis         ... NOT available
Auxiliary 'external' fitting basis          ... NOT available

Checking pre-screening integrals            ... done (  0.0 sec) Dimension = 93
Check shell pair data                       ... done (  0.0 sec)
Shell pair information
Shell pair cut-off parameter TPreSel        ...   1.0e-11
Total number of shell pairs                 ...      4371
Shell pairs after pre-screening             ...      3729
Total number of primitive shell pairs       ...     15923
Primitive shell pairs kept                  ...      9594
          la=0 lb=0:   1138 shell pairs
          la=1 lb=0:   1366 shell pairs
          la=1 lb=1:    426 shell pairs
          la=2 lb=0:    465 shell pairs
          la=2 lb=1:    280 shell pairs
          la=2 lb=2:     54 shell pairs

Calculating one electron integrals          ... done (  0.0 sec)
Calculating RI/J V-Matrix + Cholesky decomp.... done (  0.0 sec)
Calculating Nuclear repulsion               ... done (  0.0 sec) ENN=    579.223914276081 Eh

Diagonalization of the overlap matrix:
Smallest eigenvalue                        ... 2.468e-04
Time for diagonalization                   ...    0.002 sec
Threshold for overlap eigenvalues          ... 1.000e-07
Number of eigenvalues below threshold      ... 0
Time for construction of square roots      ...    0.001 sec
Total time needed                          ...    0.003 sec

-------------------
DFT GRID GENERATION
-------------------

General Integration Accuracy     IntAcc      ... 4.388
Radial Grid Type                 RadialGrid  ... OptM3 with GC (2021)
Angular Grid (max. ang.)         AngularGrid ... 4 (Lebedev-302)
Angular grid pruning method      GridPruning ... 4 (adaptive)
Weight generation scheme         WeightScheme... mBecke (2022)
Basis function cutoff            BFCut       ... 1.0000e-10
Integration weight cutoff        WCut        ... 1.0000e-14
Partially contracted basis set               ... off
Rotationally invariant grid construction     ... off
Angular grids for H and He will be reduced by one unit

Total number of grid points                  ...    95157
Total number of batches                      ...     1499
Average number of points per batch           ...       63
Average number of grid points per atom       ...     4758

--------------------
COSX GRID GENERATION
--------------------

GRIDX 1
-------
General Integration Accuracy     IntAcc      ... 3.816
Radial Grid Type                 RadialGrid  ... OptM3 with GC (2021)
Angular Grid (max. ang.)         AngularGrid ... 1 (Lebedev-50)
Angular grid pruning method      GridPruning ... 4 (adaptive)
Weight generation scheme         WeightScheme... mBecke (2022)
Basis function cutoff            BFCut       ... 1.0000e-10
Integration weight cutoff        WCut        ... 1.0000e-14
Partially contracted basis set               ... on
Rotationally invariant grid construction     ... off
Angular grids for H and He will be reduced by one unit

Total number of grid points                  ...    12144
Total number of batches                      ...      106
Average number of points per batch           ...      114
Average number of grid points per atom       ...      607
UseSFitting                                  ... on

GRIDX 2
-------
General Integration Accuracy     IntAcc      ... 4.020
Radial Grid Type                 RadialGrid  ... OptM3 with GC (2021)
Angular Grid (max. ang.)         AngularGrid ... 2 (Lebedev-110)
Angular grid pruning method      GridPruning ... 4 (adaptive)
Weight generation scheme         WeightScheme... mBecke (2022)
Basis function cutoff            BFCut       ... 1.0000e-10
Integration weight cutoff        WCut        ... 1.0000e-14
Partially contracted basis set               ... on
Rotationally invariant grid construction     ... off
Angular grids for H and He will be reduced by one unit

Total number of grid points                  ...    26569
Total number of batches                      ...      217
Average number of points per batch           ...      122
Average number of grid points per atom       ...     1328
UseSFitting                                  ... on

GRIDX 3
-------
General Integration Accuracy     IntAcc      ... 4.338
Radial Grid Type                 RadialGrid  ... OptM3 with GC (2021)
Angular Grid (max. ang.)         AngularGrid ... 3 (Lebedev-194)
Angular grid pruning method      GridPruning ... 4 (adaptive)
Weight generation scheme         WeightScheme... mBecke (2022)
Basis function cutoff            BFCut       ... 1.0000e-10
Integration weight cutoff        WCut        ... 1.0000e-14
Partially contracted basis set               ... on
Rotationally invariant grid construction     ... off
Angular grids for H and He will be reduced by one unit

Total number of grid points                  ...    58450
Total number of batches                      ...      467
Average number of points per batch           ...      125
Average number of grid points per atom       ...     2922
UseSFitting                                  ... on
Initializing property integral containers    ... done (  0.0 sec)

SHARK setup successfully completed in   0.9 seconds

Maximum memory used throughout the entire STARTUP-calculation: 38.6 MB
-------------------------------------------------------------------------------
                                 ORCA GUESS
                   Start orbitals & Density for SCF / CASSCF
-------------------------------------------------------------------------------

------------
SCF SETTINGS
------------
Hamiltonian:
 Density Functional     Method          .... DFT(GTOs)
  Functional kind                       .... Exchange-Correlation
  Functional name                       .... wB97M-V exchange-correlation functional
  Functional family                     .... Hybrid MGGA
  Functional refs                              
    [ 0] N. Mardirossian and M. Head-Gordon.,  J. Chem. Phys. 144, 214110 (2016), doi: 10.1063/1.4952647
  Fraction of HF Exchange (short range) .... 0.1500
  Fraction of HF Exchange (long range)  .... 1.0000
  Range separation parameter mu         .... 0.3000
  Functional external parameters        .... 17
    Parameter  0 _cx00      =  8.500000e-01 : u^00 coefficient for exchange
    Parameter  1 _cx01      =  1.007000e+00 : u^01 coefficient for exchange
    Parameter  2 _cx10      =  2.590000e-01 : u^10 coefficient for exchange
    Parameter  3 _css00     =  4.430000e-01 : u^00 coefficient for same-spin correlation
    Parameter  4 _css04     = -1.437000e+00 : u^04 coefficient for same-spin correlation
    Parameter  5 _css10     = -4.535000e+00 : u^10 coefficient for same-spin correlation
    Parameter  6 _css20     = -3.390000e+00 : u^20 coefficient for same-spin correlation
    Parameter  7 _css43     =  4.278000e+00 : u^43 coefficient for same-spin correlation
    Parameter  8 _cos00     =  1.000000e+00 : u^00 coefficient for opposite-spin correlation
    Parameter  9 _cos10     =  1.358000e+00 : u^10 coefficient for opposite-spin correlation
    Parameter 10 _cos20     =  2.924000e+00 : u^20 coefficient for opposite-spin correlation
    Parameter 11 _cos21     = -8.812000e+00 : u^21 coefficient for opposite-spin correlation
    Parameter 12 _cos60     = -1.390000e+00 : u^60 coefficient for opposite-spin correlation
    Parameter 13 _cos61     =  9.142000e+00 : u^61 coefficient for opposite-spin correlation
    Parameter 14 _alpha     =  1.000000e+00 : fraction of HF exchange
    Parameter 15 _beta      = -8.500000e-01 : fraction of short-range exchange
    Parameter 16 _omega     =  3.000000e-01 : range-separation constant
 Long-range corrected/Screened/Range-Separated Hybrid DFT is turned on
   Amount of maximum screened exact exchange              ....  0.850000
   Range separation parameter mu (erf(mu*r12)/r12)        ....  0.300000
   NL short-range parameter             ....  6.000000
   NL long-range parameter              ....  0.010000
 RI-approximation to the Coulomb term is turned on
   Number of AuxJ basis functions       .... 638
   RIJ-COSX (HFX calculated with COS-X)).... on


General Settings:
 Integral files         IntName         .... smd
 Hartree-Fock type      HFTyp           .... RHF
 Total Charge           Charge          ....    0
 Multiplicity           Mult            ....    1
 Number of Electrons    NEL             ....   80
 Basis Dimension        Dim             ....  199
 Nuclear Repulsion      ENuc            ....    579.2239142761 Eh

Convergence Acceleration:
 AO-DIIS                CNVDIIS         .... on
   Start iteration      DIISMaxIt       ....    12
   Startup error        DIISStart       ....  0.200000
   # of expansion vecs  DIISMaxEq       ....     5
   Bias factor          DIISBfac        ....   1.050
   Max. coefficient     DIISMaxC        ....  10.000
 MO-DIIS                CNVKDIIS        .... off
 Trust-Rad. Augm. Hess. CNVTRAH         .... auto
   Auto Start mean grad. ratio tolernc. ....  1.125000
   Auto Start start iteration           ....    50
   Auto Start num. interpolation iter.  ....    10
   Max. Number of Micro iterations      ....    24
   Max. Number of Macro iterations      .... Maxiter - #DIIS iter
   Number of Davidson start vectors     ....     2
   Converg. threshold    (grad. norm)   ....   5.000e-05
   Grad. Scal. Fac. for Micro threshold ....   0.100
   Minimum threshold for Micro iter.    ....   1.000e-02
   NR start threshold (gradient norm)   ....   1.000e-04
   Initial trust radius                 ....   0.400
   Minimum AH scaling param. (alpha)    ....   1.000
   Maximum AH scaling param. (alpha)    .... 1000.000
   Quad. conv. algorithm                .... NR
   White noise on init. David. guess    .... on
   Maximum white noise                  ....   0.010
   Pseudo random numbers                .... off
   Inactive MOs                         .... canonical
   Orbital update algorithm             .... Taylor
   Preconditioner                       .... Diag
   Full preconditioner red. dimension   ....   250
 SOSCF                  CNVSOSCF        .... on
   Start iteration      SOSCFMaxIt      ....   150
   Startup grad/error   SOSCFStart      ....  0.003300
   Hessian update       SOSCFHessUp     .... L-BFGS
 Level Shifting         CNVShift        .... on
   Level shift para.    LevelShift      ....    0.2500
   Turn off err/grad.   ShiftErr        ....    0.0010
 Zerner damping         CNVZerner       .... off
 Static damping         CNVDamp         .... on
   Fraction old density DampFac         ....    0.7000
   Max. Damping (<1)    DampMax         ....    0.9800
   Min. Damping (>=0)   DampMin         ....    0.0000
   Turn off err/grad.   DampErr         ....    0.1000

SCF Procedure:
 Maximum # iterations   MaxIter         ....   125
 SCF integral mode      SCFMode         .... Direct
   Integral package                     .... SHARK and LIBINT hybrid scheme
 Reset frequency        DirectResetFreq ....    20
 Integral Threshold     Thresh          ....  1.000e-10 Eh
 Primitive CutOff       TCut            ....  1.000e-11 Eh

Convergence Tolerance:
 Convergence Check Mode ConvCheckMode   .... Total+1el-Energy
 Convergence forced     ConvForced      .... 0
 Energy Change          TolE            ....  1.000e-06 Eh
 1-El. energy change                    ....  1.000e-03 Eh
 Orbital Gradient       TolG            ....  5.000e-05
 Orbital Rotation angle TolX            ....  5.000e-05
 DIIS Error             TolErr          ....  1.000e-06

------------------------------
INITIAL GUESS: MODEL POTENTIAL
------------------------------
Loading Hartree-Fock densities                     ... done
Calculating cut-offs                               ... done
Initializing the effective Hamiltonian             ... done
Setting up the integral package (SHARK)            ... done
Starting the Coulomb interaction                   ... done (   0.1 sec)
Making the grid                                    ... done (   0.1 sec)
Mapping shells                                     ... done
Starting the XC term evaluation                    ... done (   0.1 sec)
  promolecular density results
     # of electrons  =     80.001169902
     EX              =    -66.660756328
     EC              =     -2.693802027
     EX+EC           =    -69.354558355
Transforming the Hamiltonian                       ... done (   0.0 sec)
Diagonalizing the Hamiltonian                      ... done (   0.0 sec)
Back transforming the eigenvectors                 ... done (   0.0 sec)
Now organizing SCF variables                       ... done
                      ------------------
                      INITIAL GUESS DONE (   0.4 sec)
                      ------------------
             **** ENERGY FILE WAS UPDATED (smd.en.tmp) ****
Finished Guess after   0.4 sec
Maximum memory used throughout the entire GUESS-calculation: 19.6 MB

-------------------------------------------------------------------------------------------
                                      ORCA LEAN-SCF
                              memory conserving SCF solver
-------------------------------------------------------------------------------------------

--------------------
CPCM SOLVATION MODEL
--------------------
CPCM parameters:
  Epsilon                                         ...      78.3550
  Refrac                                          ...       1.3328
  Rsolv                                           ...       1.3000
  Surface type                                    ... GAUSSIAN VDW
  Discretization scheme                           ... Constant charge density
    Threshold for H atoms                         ...       5.0000 (charges/Ang^2)
    Threshold for non-H atoms                     ...       5.0000 (charges/Ang^2)
  Epsilon function type                           ...         CPCM
Solvent:                                          ... WATER
SMD-CDS solvent descriptors:
  Soln                                            ...       1.3328
  Soln25                                          ...       1.3323
  Sola                                            ...       0.0000
  Solb                                            ...       0.0000
  Solg                                            ...       0.0000
  Solc                                            ...       0.0000
  Solh                                            ...       0.0000
Radii:
  Scheme                                          ... Element-dependent radii
  Radius for C  used is    3.4960 Bohr (=   1.8500 Ang.)
  Radius for H  used is    2.2677 Bohr (=   1.2000 Ang.)
  Radius for N  used is    3.5716 Bohr (=   1.8900 Ang.)
  Radius for O  used is    2.8724 Bohr (=   1.5200 Ang.)
Calculating surface                               ...        done! (  0.0s)
Cavity surface points                             ...         1504
Cavity Volume                                     ...    1003.6046
Cavity Surface-area                               ...     615.6656
Calculating surface distance matrix               ...        done! (  0.0s)
Performing Cholesky decomposition & store         ...        done! (  0.0s)
Overall time for CPCM initialization              ...                 0.0s

----------------------------------------D-I-I-S--------------------------------------------
Iteration    Energy (Eh)           Delta-E    RMSDP     MaxDP     DIISErr   Damp  Time(sec)
-------------------------------------------------------------------------------------------
               ***  Starting incremental Fock matrix formation  ***
    1    -514.7680421827924420     0.00e+00  2.94e-03  7.17e-02  2.55e-01  0.700   5.0
    2    -514.8950361489869465    -1.27e-01  2.11e-03  4.89e-02  1.32e-01  0.700   2.7
                               ***Turning on AO-DIIS***
    3    -514.9609743328553577    -6.59e-02  1.05e-03  2.09e-02  6.69e-02  0.700   2.6
    4    -515.0007969286982643    -3.98e-02  2.18e-03  3.86e-02  4.27e-02  0.000   2.5
    5    -515.0865884658599043    -8.58e-02  2.61e-04  6.11e-03  5.91e-03  0.000   2.5
    6    -515.0867823016867533    -1.94e-04  1.10e-04  2.63e-03  3.61e-03  0.000   2.4
                              *** Initializing SOSCF ***
---------------------------------------S-O-S-C-F--------------------------------------
Iteration    Energy (Eh)           Delta-E    RMSDP     MaxDP     MaxGrad    Time(sec)
--------------------------------------------------------------------------------------
    7    -515.0868168416425306    -3.45e-05  5.30e-05  1.04e-03  4.55e-04     2.0
               *** Restarting incremental Fock matrix formation ***
    8    -515.0867989360865522     1.79e-05  3.99e-05  6.84e-04  1.79e-04     5.2
    9    -515.0868007831531941    -1.85e-06  2.58e-05  3.95e-04  1.63e-04     3.4
   10    -515.0868012064411232    -4.23e-07  1.01e-05  1.53e-04  5.64e-05     3.4
                 **** Energy Check signals convergence ****

               *****************************************************
               *                     SUCCESS                       *
               *           SCF CONVERGED AFTER  10 CYCLES          *
               *****************************************************


------------------
NL GRID GENERATION
------------------

General Integration Accuracy     IntAcc      ... 4.004
Radial Grid Type                 RadialGrid  ... OptM3 with GC (2021)
Angular Grid (max. ang.)         AngularGrid ... 2 (Lebedev-110)
Angular grid pruning method      GridPruning ... 4 (adaptive)
Weight generation scheme         WeightScheme... mBecke (2022)
Basis function cutoff            BFCut       ... 1.0000e-10
Integration weight cutoff        WCut        ... 1.0000e-14
Partially contracted basis set               ... off
Rotationally invariant grid construction     ... off
Angular grids for H and He will be reduced by one unit

Total number of grid points                  ...    30366
Total number of batches                      ...      484
Average number of points per batch           ...       62
Average number of grid points per atom       ...     1518
Final grid set up in    0.1 sec

-------------------------------------------------------------------------------
                    post-SCF DFT-NL dispersion correction                      
-------------------------------------------------------------------------------

SCF Energy:     -515.086801206 
NL    Energy:      0.307444907 
SC+NL Energy:   -514.779356300 
NL done in  :              1.4 sec
-------------------------------------------------------------------------------
Recomputing exchange energy using gridx3       ... done (    8.074 sec)
Old exchange energy                            :    -20.931414403 Eh
New exchange energy                            :    -20.931470094 Eh
Exchange energy change after final integration :     -0.000055692 Eh
Total energy after final integration           :   -514.779411992 Eh

SMD CDS free energy correction energy :                 5.11617     Kcal/mol
Total Energy after SMD CDS correction =              -514.771258859 Eh
             **** ENERGY FILE WAS UPDATED (smd.en.tmp) ****

----------------
TOTAL SCF ENERGY
----------------

Total Energy       :       -514.77125885923351 Eh          -14007.63809 eV

Components:
Nuclear Repulsion  :        579.22391427608136 Eh           15761.48401 eV
Electronic Energy  :      -1094.27442434617501 Eh          -29776.72091 eV
One Electron Energy:      -1846.75721052502263 Eh          -50252.81850 eV
Two Electron Energy:        752.48278617884762 Eh           20476.09760 eV
CPCM Dielectric    :         -0.03629113634752 Eh              -0.98753 eV
SMD CDS (Gcds)     :          0.00815313245640 Eh               0.22186 eV

Virial components:
Potential Energy   :      -1026.82709322484061 Eh          -27941.38572 eV
Kinetic Energy     :        512.05583436560721 Eh           13933.74763 eV
Virial Ratio       :          2.00530298516565

DFT components:
N(Alpha)           :       39.999995651116 electrons
N(Beta)            :       39.999995651116 electrons
N(Total)           :       79.999991302232 electrons
NL Energy, E(C,NL) :        0.307444906542 Eh       
E(XC)              :      -50.203079652130 Eh       

CPCM Solvation Model Properties:
Surface-charge          :         -0.03642428116345
Corrected charge        :          0.00000000000000
Outlying charge corr.   :          0.00009574241163 Eh               0.00261 eV
Free-energy (cav+disp)  :          0.00815313245640 Eh               0.22186 eV

---------------
SCF CONVERGENCE
---------------

  Last Energy change         ...    4.2329e-07  Tolerance :   1.0000e-06
  Last MAX-Density change    ...    1.5291e-04  Tolerance :   1.0000e-05
  Last RMS-Density change    ...    1.0084e-05  Tolerance :   1.0000e-06
  Last DIIS Error            ...    4.5493e-04  Tolerance :   1.0000e-06
  Last Orbital Gradient      ...    5.6375e-05  Tolerance :   5.0000e-05
  Last Orbital Rotation      ...    9.1094e-05  Tolerance :   5.0000e-05


----------------
ORBITAL ENERGIES
----------------

  NO   OCC          E(Eh)            E(eV) 
   0   2.0000     -22.005486      -598.7997 
   1   2.0000     -21.958782      -597.5288 
   2   2.0000     -16.813778      -457.5262 
   3   2.0000     -12.365882      -336.4927 
   4   2.0000     -12.317278      -335.1702 
   5   2.0000     -12.300966      -334.7263 
   6   2.0000     -12.253101      -333.4238 
   7   2.0000     -12.250693      -333.3583 
   8   2.0000     -12.247881      -333.2818 
   9   2.0000     -12.247057      -333.2594 
  10   2.0000     -12.221935      -332.5758 
  11   2.0000      -1.724891       -46.9367 
  12   2.0000      -1.695644       -46.1408 
  13   2.0000      -1.537956       -41.8499 
  14   2.0000      -1.378493       -37.5107 
  15   2.0000      -1.297841       -35.3161 
  16   2.0000      -1.278118       -34.7794 
  17   2.0000      -1.259990       -34.2861 
  18   2.0000      -1.186112       -32.2757 
  19   2.0000      -1.146829       -31.2068 
  20   2.0000      -1.134272       -30.8651 
  21   2.0000      -1.093165       -29.7465 
  22   2.0000      -1.053066       -28.6554 
  23   2.0000      -1.052549       -28.6413 
  24   2.0000      -1.016319       -27.6554 
  25   2.0000      -0.965376       -26.2692 
  26   2.0000      -0.961732       -26.1701 
  27   2.0000      -0.949519       -25.8377 
  28   2.0000      -0.939177       -25.5563 
  29   2.0000      -0.937781       -25.5183 
  30   2.0000      -0.920656       -25.0523 
  31   2.0000      -0.915162       -24.9028 
  32   2.0000      -0.910734       -24.7823 
  33   2.0000      -0.848894       -23.0996 
  34   2.0000      -0.839200       -22.8358 
  35   2.0000      -0.833085       -22.6694 
  36   2.0000      -0.795061       -21.6347 
  37   2.0000      -0.758224       -20.6323 
  38   2.0000      -0.647592       -17.6219 
  39   2.0000      -0.637504       -17.3474 
  40   0.0000      -0.293643        -7.9904 
  41   0.0000      -0.250531        -6.8173 
  42   0.0000      -0.238848        -6.4994 
  43   0.0000      -0.142321        -3.8728 
  44   0.0000      -0.125418        -3.4128 
  45   0.0000      -0.084517        -2.2998 
  46   0.0000      -0.050937        -1.3861 
  47   0.0000      -0.015265        -0.4154 
  48   0.0000       0.000585         0.0159 
  49   0.0000       0.015423         0.4197 
  50   0.0000       0.019072         0.5190 
*Only the first 10 virtual orbitals were printed.

                    ********************************
                    * MULLIKEN POPULATION ANALYSIS *
                    ********************************

-----------------------
MULLIKEN ATOMIC CHARGES
-----------------------
   0 C :    0.094923
   1 C :    0.092943
   2 C :    0.031294
   3 C :    0.163934
   4 C :    0.055917
   5 C :    0.082231
   6 C :   -0.033764
   7 C :    0.404702
   8 H :   -0.153341
   9 H :   -0.076306
  10 H :   -0.103744
  11 H :   -0.094486
  12 H :    0.170570
  13 H :    0.097596
  14 H :   -0.038699
  15 H :   -0.112631
  16 H :    0.021653
  17 N :   -0.002084
  18 O :   -0.216537
  19 O :   -0.384170
Sum of atomic charges:   -0.0000000

--------------------------------
MULLIKEN REDUCED ORBITAL CHARGES
--------------------------------
  0 C s       :     2.915437  s :     2.915437
      pz      :     1.031349  p :     2.932499
      px      :     0.947902
      py      :     0.953247
      dz2     :     0.009944  d :     0.057140
      dxz     :     0.012700
      dyz     :     0.006739
      dx2y2   :     0.013395
      dxy     :     0.014363

  1 C s       :     3.220854  s :     3.220854
      pz      :     0.856270  p :     2.650917
      px      :     0.947343
      py      :     0.847304
      dz2     :     0.004769  d :     0.035287
      dxz     :     0.007918
      dyz     :     0.005927
      dx2y2   :     0.009201
      dxy     :     0.007472

  2 C s       :     3.212621  s :     3.212621
      pz      :     0.970931  p :     2.722539
      px      :     0.772590
      py      :     0.979018
      dz2     :     0.006883  d :     0.033546
      dxz     :     0.006406
      dyz     :     0.005978
      dx2y2   :     0.008619
      dxy     :     0.005661

  3 C s       :     2.935908  s :     2.935908
      pz      :     1.022355  p :     2.824246
      px      :     0.883530
      py      :     0.918361
      dz2     :     0.012782  d :     0.075912
      dxz     :     0.016072
      dyz     :     0.009909
      dx2y2   :     0.018662
      dxy     :     0.018486

  4 C s       :     3.198642  s :     3.198642
      pz      :     0.870543  p :     2.711026
      px      :     0.935581
      py      :     0.904902
      dz2     :     0.005215  d :     0.034415
      dxz     :     0.007529
      dyz     :     0.005807
      dx2y2   :     0.008750
      dxy     :     0.007114

  5 C s       :     3.197719  s :     3.197719
      pz      :     0.951033  p :     2.684477
      px      :     0.772909
      py      :     0.960535
      dz2     :     0.007267  d :     0.035573
      dxz     :     0.007511
      dyz     :     0.006178
      dx2y2   :     0.009104
      dxy     :     0.005513

  6 C s       :     3.135655  s :     3.135655
      pz      :     0.929319  p :     2.777470
      px      :     0.988426
      py      :     0.859725
      dz2     :     0.039065  d :     0.120639
      dxz     :     0.024618
      dyz     :     0.026488
      dx2y2   :     0.015425
      dxy     :     0.015042

  7 C s       :     2.642057  s :     2.642057
      pz      :     0.896706  p :     2.927947
      px      :     1.001416
      py      :     1.029825
      dz2     :     0.008113  d :     0.025294
      dxz     :     0.007112
      dyz     :     0.000411
      dx2y2   :     0.005107
      dxy     :     0.004552

  8 H s       :     1.120206  s :     1.120206
      pz      :     0.014684  p :     0.033135
      px      :     0.005860
      py      :     0.012591

  9 H s       :     1.046845  s :     1.046845
      pz      :     0.007169  p :     0.029460
      px      :     0.016961
      py      :     0.005331

 10 H s       :     1.072311  s :     1.072311
      pz      :     0.014516  p :     0.031433
      px      :     0.005635
      py      :     0.011282

 11 H s       :     1.063782  s :     1.063782
      pz      :     0.008050  p :     0.030704
      px      :     0.017151
      py      :     0.005504

 12 H s       :     0.752183  s :     0.752183
      pz      :     0.037436  p :     0.077247
      px      :     0.017966
      py      :     0.021845

 13 H s       :     0.850910  s :     0.850910
      pz      :     0.017893  p :     0.051494
      px      :     0.021028
      py      :     0.012573

 14 H s       :     1.001610  s :     1.001610
      pz      :     0.020226  p :     0.037090
      px      :     0.007962
      py      :     0.008902

 15 H s       :     1.071263  s :     1.071263
      pz      :     0.019749  p :     0.041367
      px      :     0.011471
      py      :     0.010147

 16 H s       :     0.949499  s :     0.949499
      pz      :     0.007288  p :     0.028847
      px      :     0.005802
      py      :     0.015757

 17 N s       :     3.235170  s :     3.235170
      pz      :     1.130578  p :     3.745473
      px      :     1.163139
      py      :     1.451756
      dz2     :     0.004162  d :     0.021441
      dxz     :     0.006932
      dyz     :     0.003743
      dx2y2   :     0.003780
      dxy     :     0.002824

 18 O s       :     3.623705  s :     3.623705
      pz      :     1.365212  p :     4.578608
      px      :     1.599676
      py      :     1.613721
      dz2     :     0.004267  d :     0.014224
      dxz     :     0.002723
      dyz     :     0.001283
      dx2y2   :     0.002212
      dxy     :     0.003740

 19 O s       :     3.728824  s :     3.728824
      pz      :     1.514320  p :     4.639397
      px      :     1.525572
      py      :     1.599505
      dz2     :     0.003693  d :     0.015950
      dxz     :     0.005823
      dyz     :     0.002601
      dx2y2   :     0.001998
      dxy     :     0.001835



                     *******************************
                     * LOEWDIN POPULATION ANALYSIS *
                     *******************************

----------------------
LOEWDIN ATOMIC CHARGES
----------------------
   0 C :    0.024394
   1 C :    0.003308
   2 C :   -0.026885
   3 C :    0.060582
   4 C :   -0.025342
   5 C :    0.003651
   6 C :    0.110496
   7 C :   -0.008913
   8 H :   -0.021399
   9 H :    0.008029
  10 H :    0.001597
  11 H :    0.004807
  12 H :    0.052042
  13 H :    0.050818
  14 H :    0.017411
  15 H :   -0.017494
  16 H :    0.076901
  17 N :    0.058038
  18 O :   -0.050171
  19 O :   -0.321869

-------------------------------
LOEWDIN REDUCED ORBITAL CHARGES
-------------------------------
  0 C s       :     2.821080  s :     2.821080
      pz      :     1.042460  p :     3.017041
      px      :     0.991023
      py      :     0.983558
      dz2     :     0.023235  d :     0.137485
      dxz     :     0.030898
      dyz     :     0.016863
      dx2y2   :     0.032306
      dxy     :     0.034183

  1 C s       :     2.805450  s :     2.805450
      pz      :     1.034986  p :     3.093324
      px      :     1.034333
      py      :     1.024005
      dz2     :     0.012292  d :     0.097917
      dxz     :     0.022973
      dyz     :     0.016509
      dx2y2   :     0.025097
      dxy     :     0.021047

  2 C s       :     2.822625  s :     2.822625
      pz      :     1.032116  p :     3.111411
      px      :     1.054155
      py      :     1.025140
      dz2     :     0.017352  d :     0.092850
      dxz     :     0.018530
      dyz     :     0.016845
      dx2y2   :     0.023283
      dxy     :     0.016841

  3 C s       :     2.832319  s :     2.832319
      pz      :     1.021502  p :     2.937011
      px      :     0.968673
      py      :     0.946836
      dz2     :     0.028530  d :     0.170088
      dxz     :     0.035729
      dyz     :     0.021913
      dx2y2   :     0.042425
      dxy     :     0.041491

  4 C s       :     2.811265  s :     2.811265
      pz      :     1.043958  p :     3.117733
      px      :     1.037400
      py      :     1.036376
      dz2     :     0.013804  d :     0.096344
      dxz     :     0.022308
      dyz     :     0.016222
      dx2y2   :     0.023991
      dxy     :     0.020019

  5 C s       :     2.811801  s :     2.811801
      pz      :     1.022773  p :     3.086283
      px      :     1.056742
      py      :     1.006768
      dz2     :     0.018624  d :     0.098265
      dxz     :     0.021406
      dyz     :     0.017365
      dx2y2   :     0.024455
      dxy     :     0.016415

  6 C s       :     2.837372  s :     2.837372
      pz      :     0.951886  p :     2.785157
      px      :     0.978870
      py      :     0.854401
      dz2     :     0.089894  d :     0.266975
      dxz     :     0.056948
      dyz     :     0.058507
      dx2y2   :     0.031544
      dxy     :     0.030082

  7 C s       :     2.727654  s :     2.727654
      pz      :     1.089204  p :     3.198225
      px      :     1.055704
      py      :     1.053316
      dz2     :     0.032055  d :     0.083035
      dxz     :     0.021050
      dyz     :     0.001232
      dx2y2   :     0.014407
      dxy     :     0.014291

  8 H s       :     0.915188  s :     0.915188
      pz      :     0.042600  p :     0.106212
      px      :     0.025009
      py      :     0.038602

  9 H s       :     0.900553  s :     0.900553
      pz      :     0.025318  p :     0.091418
      px      :     0.045344
      py      :     0.020756

 10 H s       :     0.899882  s :     0.899882
      pz      :     0.041617  p :     0.098521
      px      :     0.022437
      py      :     0.034467

 11 H s       :     0.899892  s :     0.899892
      pz      :     0.027611  p :     0.095301
      px      :     0.045781
      py      :     0.021909

 12 H s       :     0.727270  s :     0.727270
      pz      :     0.099669  p :     0.220688
      px      :     0.057355
      py      :     0.063664

 13 H s       :     0.786044  s :     0.786044
      pz      :     0.052052  p :     0.163139
      px      :     0.063540
      py      :     0.047546

 14 H s       :     0.881206  s :     0.881206
      pz      :     0.045109  p :     0.101383
      px      :     0.027932
      py      :     0.028342

 15 H s       :     0.893641  s :     0.893641
      pz      :     0.046014  p :     0.123853
      px      :     0.040070
      py      :     0.037769

 16 H s       :     0.851802  s :     0.851802
      pz      :     0.015478  p :     0.071296
      px      :     0.017957
      py      :     0.037860

 17 N s       :     2.993333  s :     2.993333
      pz      :     1.236909  p :     3.889401
      px      :     1.239843
      py      :     1.412649
      dz2     :     0.012672  d :     0.059228
      dxz     :     0.020347
      dyz     :     0.009957
      dx2y2   :     0.008961
      dxy     :     0.007291

 18 O s       :     3.367193  s :     3.367193
      pz      :     1.450671  p :     4.655158
      px      :     1.605932
      py      :     1.598554
      dz2     :     0.009700  d :     0.027820
      dxz     :     0.004915
      dyz     :     0.003390
      dx2y2   :     0.003334
      dxy     :     0.006481

 19 O s       :     3.546870  s :     3.546870
      pz      :     1.572736  p :     4.747583
      px      :     1.582113
      py      :     1.592735
      dz2     :     0.006122  d :     0.027416
      dxz     :     0.011854
      dyz     :     0.003449
      dx2y2   :     0.003434
      dxy     :     0.002556



                      *****************************
                      * MAYER POPULATION ANALYSIS *
                      *****************************

  NA   - Mulliken gross atomic population
  ZA   - Total nuclear charge
  QA   - Mulliken gross atomic charge
  VA   - Mayer's total valence
  BVA  - Mayer's bonded valence
  FA   - Mayer's free valence

  ATOM       NA         ZA         QA         VA         BVA        FA
  0 C      5.9051     6.0000     0.0949     3.8698     3.8698    -0.0000
  1 C      5.9071     6.0000     0.0929     3.8586     3.8586     0.0000
  2 C      5.9687     6.0000     0.0313     3.8221     3.8221     0.0000
  3 C      5.8361     6.0000     0.1639     3.8980     3.8980    -0.0000
  4 C      5.9441     6.0000     0.0559     3.8243     3.8243    -0.0000
  5 C      5.9178     6.0000     0.0822     3.8161     3.8161    -0.0000
  6 C      6.0338     6.0000    -0.0338     4.4777     4.4777    -0.0000
  7 C      5.5953     6.0000     0.4047     3.7226     3.7226    -0.0000
  8 H      1.1533     1.0000    -0.1533     1.0429     1.0429     0.0000
  9 H      1.0763     1.0000    -0.0763     1.0001     1.0001     0.0000
 10 H      1.1037     1.0000    -0.1037     0.9919     0.9919    -0.0000
 11 H      1.0945     1.0000    -0.0945     0.9921     0.9921     0.0000
 12 H      0.8294     1.0000     0.1706     1.0225     1.0225    -0.0000
 13 H      0.9024     1.0000     0.0976     1.0062     1.0062    -0.0000
 14 H      1.0387     1.0000    -0.0387     1.0235     1.0235    -0.0000
 15 H      1.1126     1.0000    -0.1126     0.9981     0.9981    -0.0000
 16 H      0.9783     1.0000     0.0217     1.0128     1.0128    -0.0000
 17 N      7.0021     7.0000    -0.0021     3.1938     3.1938    -0.0000
 18 O      8.2165     8.0000    -0.2165     2.1987     2.1987    -0.0000
 19 O      8.3842     8.0000    -0.3842     2.1232     2.1232     0.0000

  Mayer bond orders larger than 0.100000
B(  0-C ,  1-C ) :   1.3791 B(  0-C ,  5-C ) :   1.3512 B(  0-C , 17-N ) :   1.0270 
B(  1-C ,  2-C ) :   1.3564 B(  1-C ,  8-H ) :   1.0390 B(  2-C ,  3-C ) :   1.3609 
B(  2-C ,  9-H ) :   1.0288 B(  3-C ,  4-C ) :   1.3171 B(  3-C , 18-O ) :   1.1517 
B(  4-C ,  5-C ) :   1.3783 B(  4-C , 10-H ) :   1.0387 B(  5-C , 11-H ) :   1.0316 
B(  6-C ,  7-C ) :   1.0366 B(  6-C , 17-N ) :   1.2288 B(  6-C , 19-O ) :   1.9533 
B(  7-C , 14-H ) :   0.9177 B(  7-C , 15-H ) :   0.9028 B(  7-C , 16-H ) :   0.8939 
B( 12-H , 18-O ) :   0.9894 B( 13-H , 17-N ) :   0.9299 

-------
TIMINGS
-------

Total SCF time: 0 days 0 hours 0 min 41 sec 

Total time                  ....      41.649 sec
Sum of individual times     ....      40.192 sec  ( 96.5%)

SCF preparation             ....       0.087 sec  (  0.2%)
Fock matrix formation       ....      39.503 sec  ( 94.8%)
  Startup                   ....       0.317 sec  (  0.8% of F)
  Split-RI-J                ....       1.440 sec  (  3.6% of F)
  Chain of spheres X        ....      29.153 sec  ( 73.8% of F)
  XC integration            ....       8.477 sec  ( 21.5% of F)
    XC Preparation          ....       0.000 sec  (  0.0% of XC)
    Basis function eval.    ....       1.329 sec  ( 15.7% of XC)
    Density eval.           ....       1.928 sec  ( 22.7% of XC)
    XC-Functional eval.     ....       1.583 sec  ( 18.7% of XC)
    XC-Potential eval.      ....       3.383 sec  ( 39.9% of XC)
  CPCM terms                ....       1.467 sec  (  3.7% of F)
Diagonalization             ....       0.000 sec  (  0.0%)
Density matrix formation    ....       0.123 sec  (  0.3%)
Total Energy calculation    ....       0.075 sec  (  0.2%)
Population analysis         ....       0.033 sec  (  0.1%)
Orbital Transformation      ....       0.018 sec  (  0.0%)
Orbital Orthonormalization  ....       0.000 sec  (  0.0%)
DIIS solution               ....       0.179 sec  (  0.4%)
SOSCF solution              ....       0.058 sec  (  0.1%)
Grid generation             ....       0.116 sec  (  0.3%)
Finished LeanSCF after  41.7 sec

Maximum memory used throughout the entire LEANSCF-calculation: 27.8 MB

-------------------------   --------------------
FINAL SINGLE POINT ENERGY      -514.771258859234
-------------------------   --------------------


------------------------------------------------------------------------------
                              ORCA PROPERTY CALCULATIONS
------------------------------------------------------------------------------

GBWName                                 ... smd.gbw
Number of atoms                         ...     20
Number of basis functions               ...    199
Max core memory                         ...   1024 MB

Electric properties:
Dipole moment                           ... YES
Quadrupole moment                       ...  NO
Static polarizability (Dipole/Dipole)   ...  NO
Static polarizability (Dipole/Quad.)    ...  NO
Static polarizability (Quad./Quad.)     ...  NO
Static polarizability (Velocity)        ...  NO

Atomic electric properties:
Dipole moment                           ...  NO
Quadrupole moment                       ...  NO
Static polarizability                   ...  NO

Choice of electric origin               ... Center of mass
Position of electric origin             ...    18.584091     6.024921     9.846379

General magnetic properties:
Magnetizability                         ...  NO

EPR properties:
g-Tensor (aka g-matrix)                 ...  NO
Zero-Field splitting spin-orbit         ...  NO
Zero-field splitting spin-spin          ...  NO
Hyperfine couplings                     ...  NO (   0 nuclei)
Quadrupole couplings                    ...  NO (   0 nuclei)
Contact density                         ...  NO (   0 nuclei)

NMR properties:
Chemical shifts                         ...  NO (   0 nuclei)
Spin-rotation constants                 ...  NO (   0 nuclei)
Spin-spin couplings                     ...  NO (   0 nuclei,    0 pairs)

Choice of magnetic origin               ... GIAO
Position of magnetic origin             ...     0.000000     0.000000     0.000000

Properties with geometric perturbations:
SCF Hessian                             ...  NO
IR spectrum                             ...  NO
VCD spectrum                            ...  NO
X-ray spectroscopy properties:
SCF XES/XAS/RIXS spectra                ...  NO


-------------
DIPOLE MOMENT
-------------

Method             : SCF
Type of density    : Electron Density
Multiplicity       :   1
Irrep              :   0
Energy             :  -514.7712588592335123 Eh
Relativity type    : 
Basis              : AO
                                X                 Y                 Z
Electronic contribution:      4.009382741      -3.458671428       1.455596118
Nuclear contribution   :     -5.623527571       3.523362818       0.836470409
                        -----------------------------------------
Total Dipole Moment    :     -1.614144830       0.064691390       2.292066527
                        -----------------------------------------
Magnitude (a.u.)       :      2.804142912
Magnitude (Debye)      :      7.127564846



--------------------
Rotational spectrum 
--------------------
 
Rotational constants in cm-1:             0.124045             0.018345             0.016158 
Rotational constants in MHz :          3718.767912           549.975046           484.412568 

Dipole components along the rotational axes: 
x,y,z [a.u.] :     0.015227    -2.719698    -0.682811 
x,y,z [Debye]:     0.038703    -6.912922    -1.735567 

 

Dipole moment calculation done in   0.0 sec 

Maximum memory used throughout the entire PROP-calculation: 10.9 MB

--------------------------------
SUGGESTED CITATIONS FOR THIS RUN
--------------------------------

Below you find a list of papers that are relevant to this ORCA run
We neither can nor want to force you to cite these papers, but we appreciate if you do
You receive ORCA, which is the product of decades of hard work by many enthusiastic individuals, for free
The only thing we kindly ask in return is that you cite our papers,
We deeply appreciate it, if you show your appreciation for ORCA by not just citing the generic ORCA reference.

Please note that relegating all ORCA citations to the supporting information does *not* help us.
SI sections are not indexed - citations you put there will not count into any citation statistics
But we need these citations in order to attract the funding resources that allow us to do what we are doing

Therefore, if you are a happy ORCA user, please consider citing a few of the papers listed below in the main body of your paper

In addition to the list printed below, the program has created the file smd.bibtex that contains the list in bibtex format
You can import this file easily into all common literature databanks and citation aid programs


List of essential papers. We consider these as the minimum necessary citations

  1. Neese,F.
     Software update: the ORCA program system, version 5.0
     WIRES Comput. Molec. Sci., 2022 12(1)e1606
     doi.org/10.1002/wcms.1606

List of papers to cite with high priority. The work reported in these papers was absolutely
necessary for this run to complete.
Our perspective: the developers of density functionals and basis sets usually get cited in chemistry papers
Good! But without the algorithms to do something with them, the functionals or basis sets would not do anything.
Hence, in our opinion, the algorithm design and method developments papers are equally worthy of getting cited

  1. Neese,F.
     An improvement of the resolution of the identity approximation for the formation of the Coulomb matrix
     J. Comp. Chem., 2003 24(14)1740-1747
     doi.org/10.1002/jcc.10318
  2. Neese,F.; Wennmohs,F.; Hansen,A.; Becker,U.
     Efficient, approximate and parallel Hartree-Fock and hybrid DFT calculations. A 'chain-of-spheres' algorithm for the Hartree-Fock exchange
     Chem. Phys., 2009 356(1-3)98-109
     doi.org/10.1016/j.chemphys.2008.10.036
  3. Garcia-Rates,M.; Neese,F.
     Effect of the Solute Cavity on the Solvation Energy and its Derivatives within the Framework of the Gaussian Charge Scheme
     J. Comput. Chem., 2020 41 922-939
     doi.org/10.1002/jcc.26139
  4. Helmich-Paris,B.; de Souza,B.; Neese,F.; Izsák,R.
     An improved chain of spheres for exchange algorithm
     J. Chem. Phys., 2021 155 104109
     doi.org/doi: 10.1063/5.0058766.
  5. Neese,F.
     The SHARK Integral Generation and Digestion System
     J. Comp. Chem., 2022  1-16
     doi.org/10.1002/jcc.26942
  6. Lehtola,S.; Steigemann,C.; Oliveira,M.; Marques,M.
     Recent developments in Libxc - A comprehensive library of functionals for density functional theory
     Software X, 2018 7 
     doi.org/10.1016/j.softx.2017.11.002

List of suggested additional citations. These are papers that are important in the 'surrounding' of 
of this run, or papers that preceded the highly important papers. If you like your results we are grateful for a citation.

  1. Izsak,R.; Neese,F.
     An overlap fitted chain of spheres exchange method
     J. Chem. Phys., 2011 135 144105
     doi.org/10.1063/1.3646921
  2. Izsak,R.; Hansen,A.; Neese,F.
     The resolution of identity and chain of spheres approximations for the LPNO-CCSD singles Fock term
     Molec. Phys., 2012 110 2413-2417
     doi.org/10.1080/00268976.2012.687466
  3. Neese,F.
     The ORCA program system
     WIRES Comput. Molec. Sci., 2012 2(1)73-78
     doi.org/10.1002/wcms.81
  4. Izsak,R.; Neese,F.; Klopper,W.
     Robust fitting techniques in the chain of spheres approximation to the Fock exchange: The role of the complementary space
     J. Chem. Phys., 2013 139 
     doi.org/10.1063/1.4819264
  5. Neese,F.
     Software update: the ORCA program system, version 4.0
     WIRES Comput. Molec. Sci., 2018 8(1)1-6
     doi.org/10.1002/wcms.1327
  6. Neese,F.; Wennmohs,F.; Becker,U.; Riplinger,C.
     The ORCA quantum chemistry program package
     J. Chem. Phys., 2020 152 Art. No. L224108
     doi.org/10.1063/5.0004608

List of optional additional citations

  1. Neese,F.
     Approximate second-order SCF convergence for spin unrestricted wavefunctions
     Chem. Phys. Lett., 2000 325(1-3)93-98
     doi.org/10.1016/s0009-2614(00)00662-x

Timings for individual modules:

Sum of individual times          ...       43.268 sec (=   0.721 min)
Startup calculation              ...        0.960 sec (=   0.016 min)   2.2 %
SCF iterations                   ...       42.215 sec (=   0.704 min)  97.6 %
Property calculations            ...        0.093 sec (=   0.002 min)   0.2 %
                             ****ORCA TERMINATED NORMALLY****
TOTAL RUN TIME: 0 days 0 hours 0 minutes 43 seconds 415 msec
