
                                 *****************
                                 * O   R   C   A *
                                 *****************

                                            #,                                       
                                            ###                                      
                                            ####                                     
                                            #####                                    
                                            ######                                   
                                           ########,                                 
                                     ,,################,,,,,                         
                               ,,#################################,,                 
                          ,,##########################################,,             
                       ,#########################################, ''#####,          
                    ,#############################################,,   '####,        
                  ,##################################################,,,,####,       
                ,###########''''           ''''###############################       
              ,#####''   ,,,,##########,,,,          '''####'''          '####       
            ,##' ,,,,###########################,,,                        '##       
           ' ,,###''''                  '''############,,,                           
         ,,##''                                '''############,,,,        ,,,,,,###''
      ,#''                                            '''#######################'''  
     '                                                          ''''####''''         
             ,#######,   #######,   ,#######,      ##                                
            ,#'     '#,  ##    ##  ,#'     '#,    #''#        ,####,   ,####,        
            ##       ##  ##   ,#'  ##            #'  '#       #'       #'  '#        
            ##       ##  #######   ##           ,######,      #####,   #    #        
            '#,     ,#'  ##    ##  '#,     ,#' ,#      #,     #,   #   #,  ,#        
             '#######'   ##     ##  '#######'  #'      '#     '####' # '####'        



                #########################################################
                #                        -***-                          #
                #          Department of theory and spectroscopy        #
                #                                                       #
                #                      Frank Neese                      #
                #                                                       #
                #     Directorship, Architecture, Infrastructure        #
                #                    SHARK, DRIVERS                     #
                #        Core code/Algorithms in most modules           #
                #                                                       #
                #        Max Planck Institute fuer Kohlenforschung      #
                #                Kaiser Wilhelm Platz 1                 #
                #                 D-45470 Muelheim/Ruhr                 #
                #                      Germany                          #
                #                                                       #
                #                  All rights reserved                  #
                #                        -***-                          #
                #########################################################


                         Program Version 6.0.0  -   RELEASE  -


 With contributions from (in alphabetic order):
   Daniel Aravena         : Magnetic Suceptibility
   Michael Atanasov       : Ab Initio Ligand Field Theory (pilot matlab implementation)
   Alexander A. Auer      : GIAO ZORA, VPT2 properties, NMR spectrum
   Ute Becker             : All parallelization in ORCA, NUMFREQ, NUMCALC
   Giovanni Bistoni       : ED, misc. LED, open-shell LED, HFLD
   Martin Brehm           : Molecular dynamics
   Dmytro Bykov           : pre 5.0 version of the SCF Hessian
   Marcos Casanova-Páez   : Triplet and SCS-CIS(D). UHF-(DLPNO)-IP/EA/STEOM-CCSD. UHF-CVS-IP/STEOM-CCSD
   Vijay G. Chilkuri      : MRCI spin determinant printing, contributions to CSF-ICE
   Pauline Colinet        : FMM embedding
   Dipayan Datta          : RHF DLPNO-CCSD density
   Achintya Kumar Dutta   : EOM-CC, STEOM-CC
   Nicolas Foglia         : Exact transition moments, OPA infrastructure, MCD improvements
   Dmitry Ganyushin       : Spin-Orbit,Spin-Spin,Magnetic field MRCI
   Miquel Garcia          : C-PCM and meta-GGA Hessian, CCSD/C-PCM, Gaussian charge scheme
   Tiago L. C. Gouveia    : GS-ROHF, GS-ROCIS
   Yang Guo               : DLPNO-NEVPT2, F12-NEVPT2, CIM, IAO-localization
   Andreas Hansen         : Spin unrestricted coupled pair/coupled cluster methods
   Ingolf Harden          : AUTO-CI MPn and infrastructure 
   Benjamin Helmich-Paris : MC-RPA, TRAH-(SCF,CASSCF), AVAS, COSX integrals, SCF dyn. polar.
   Lee Huntington         : MR-EOM, pCC
   Robert Izsak           : Overlap fitted RIJCOSX, COSX-SCS-MP3, EOM
   Riya Kayal             : Wick's Theorem for AUTO-CI, AUTO-CI UHF-CCSDT
   Emily Kempfer          : AUTO-CI, RHF CISDT and CCSDT
   Christian Kollmar      : KDIIS, OOCD, Brueckner-CCSD(T), CCSD density, CASPT2, CASPT2-K, improved NEVPT2
   Axel Koslowski         : Symmetry handling
   Simone Kossmann        : Meta GGA functionals, TD-DFT gradient, OOMP2, (MP2 Hessian; deprecated post 5.0)
   Lucas Lang             : DCDCAS
   Marvin Lechner         : AUTO-CI (C++ implementation), FIC-MRCC
   Spencer Leger          : CASSCF response
   Dagmar Lenk            : GEPOL surface, SMD, ORCA-2-JSON
   Dimitrios Liakos       : Extrapolation schemes; Compound Job, initial MDCI parallelization
   Dimitrios Manganas     : Further ROCIS development; embedding schemes. LFT, Crystal Embedding
   Dimitrios Pantazis     : SARC Basis sets
   Anastasios Papadopoulos: AUTO-CI, single reference methods and gradients
   Taras Petrenko         : pre 6.0 DFT Hessian and TD-DFT gradient, (ASA, deprecated), ECA, 1-Electron XAS/XES, NRVS
   Peter Pinski           : DLPNO-MP2, DLPNO-MP2 Gradient
   Christoph Reimann      : Effective Core Potentials
   Marius Retegan         : Local ZFS, SOC
   Christoph Riplinger    : Optimizer, TS searches, QM/MM, DLPNO-CCSD(T), (RO)-DLPNO pert. Triples
   Michael Roemelt        : Original ROCIS implementation
   Masaaki Saitow         : Open-shell DLPNO-CCSD energy and density
   Barbara Sandhoefer     : DKH picture change effects
   Kantharuban Sivalingam : CASSCF convergence/infrastructure, NEVPT2 and variants, FIC-MRCI
   Bernardo de Souza      : ESD, SOC TD-DFT
   Georgi Stoychev        : AutoAux, RI-MP2 NMR, DLPNO-MP2 response, X2C
   Van Anh Tran           : RI-MP2 g-tensors
   Willem Van den Heuvel  : Paramagnetic NMR
   Zikuan Wang            : NOTCH, Electric field optimization 
   Frank Wennmohs         : Technical directorship and infrastructure
   Hang Xu                : AUTO-CI-Response properties 


 We gratefully acknowledge several colleagues who have allowed us to
 interface, adapt or use parts of their codes:
   Stefan Grimme, W. Hujo, H. Kruse, P. Pracht,  : VdW corrections, initial TS optimization,
                  C. Bannwarth, S. Ehlert,         DFT functionals, gCP, sTDA/sTD-DF
                  L. Wittmann, M. Mueller
   Ed Valeev, F. Pavosevic, A. Kumar             : LibInt (2-el integral package), F12 methods
   Garnet Chan, S. Sharma, J. Yang, R. Olivares  : DMRG
   Ulf Ekstrom                                   : XCFun DFT Library
   Mihaly Kallay                                 : mrcc  (arbitrary order and MRCC methods)
   Frank Weinhold                                : gennbo (NPA and NBO analysis)
   Simon Mueller                                 : openCOSMO-RS
   Christopher J. Cramer and Donald G. Truhlar   : smd solvation model
   Lars Goerigk                                  : TD-DFT with DH, B97 family of functionals
   V. Asgeirsson, H. Jonsson                     : NEB implementation
   FAccTs GmbH                                   : IRC, NEB, NEB-TS, DLPNO-Multilevel, CI-OPT
                                                   MM, QMMM, 2- and 3-layer-ONIOM, Crystal-QMMM,
                                                   LR-CPCM, SF, NACMEs, symmetry and pop. for TD-DFT,
                                                   nearIR, NL-DFT gradient (VV10), updates on ESD,
                                                   ML-optimized integration grids, MBIS, APM,
                                                   GOAT, DOCKER, SOLVATOR, interface openCOSMO-RS
   S Lehtola, MJT Oliveira, MAL Marques          : LibXC Library
   Liviu Ungur et al                             : ANISO software


 Your calculation uses the libint2 library for the computation of 2-el integrals
 For citations please refer to: http://libint.valeyev.net

 Your ORCA version has been built with support for libXC version: 6.2.2
 For citations please refer to: https://libxc.gitlab.io

 This ORCA versions uses:
   CBLAS   interface :  Fast vector & matrix operations
   LAPACKE interface :  Fast linear algebra routines
   SCALAPACK package :  Parallel linear algebra routines
   Shared memory     :  Shared parallel matrices


XCFun DFT library Copyright 2009-2010 Ulf Ekstrom and contributors.
See http://admol.org/xcfun for more information.
This is free software; see the source code for copying conditions.
There is ABSOLUTELY NO WARRANTY; not even for MERCHANTABILITY or FITNESS FOR A PARTICULAR PURPOSE.
For details see the documentation.
Scientific users of this library should cite U. Ekstrom, L. Visscher, R. Bast, A. J. Thorvaldsen and K. Ruud;
J.Chem.Theor.Comp. 2010, DOI: 10.1021/ct100117s
XCFun Version 0.99 

Warning: RI is on but no J-basis has been assigned. Assigning Def2/J (nothing to worry about!)
================================================================================

----- Orbital basis set information -----
Your calculation utilizes the basis: def2-QZVP
   F. Weigend and R. Ahlrichs, Phys. Chem. Chem. Phys. 7, 3297 (2005).

----- AuxJ basis set information -----
Your calculation utilizes the auxiliary basis: def2/J
   F. Weigend, Phys. Chem. Chem. Phys. 8, 1057 (2006).

================================================================================
                                        WARNINGS
                       Please study these warnings very carefully!
================================================================================


XCFun DFT library Copyright 2009-2010 Ulf Ekstrom and contributors.
See http://admol.org/xcfun for more information.
This is free software; see the source code for copying conditions.
There is ABSOLUTELY NO WARRANTY; not even for MERCHANTABILITY or FITNESS FOR A PARTICULAR PURPOSE.
For details see the documentation.
Scientific users of this library should cite U. Ekstrom, L. Visscher, R. Bast, A. J. Thorvaldsen and K. Ruud;
J.Chem.Theor.Comp. 2010, DOI: 10.1021/ct100117s
XCFun Version 0.99 

Warning: RI is on but no J-basis has been assigned. Assigning Def2/J (nothing to worry about!)
================================================================================

----- Orbital basis set information -----
Your calculation utilizes the basis: def2-QZVP
   F. Weigend and R. Ahlrichs, Phys. Chem. Chem. Phys. 7, 3297 (2005).

----- AuxJ basis set information -----
Your calculation utilizes the auxiliary basis: def2/J
   F. Weigend, Phys. Chem. Chem. Phys. 8, 1057 (2006).

================================================================================
                                        WARNINGS
                       Please study these warnings very carefully!
================================================================================


WARNING: MOInp is set but Guess=PModel. MOInp will be ignored!
         To read the initial guess from a file you must also specify
         'MORead' in the simple input or 'Guess MORead' in the %scf block


XCFun DFT library Copyright 2009-2010 Ulf Ekstrom and contributors.
See http://admol.org/xcfun for more information.
This is free software; see the source code for copying conditions.
There is ABSOLUTELY NO WARRANTY; not even for MERCHANTABILITY or FITNESS FOR A PARTICULAR PURPOSE.
For details see the documentation.
Scientific users of this library should cite U. Ekstrom, L. Visscher, R. Bast, A. J. Thorvaldsen and K. Ruud;
J.Chem.Theor.Comp. 2010, DOI: 10.1021/ct100117s
XCFun Version 0.99 

Warning: RI is on but no J-basis has been assigned. Assigning Def2/J (nothing to worry about!)
================================================================================

----- Orbital basis set information -----
Your calculation utilizes the basis: def2-QZVP
   F. Weigend and R. Ahlrichs, Phys. Chem. Chem. Phys. 7, 3297 (2005).

----- AuxJ basis set information -----
Your calculation utilizes the auxiliary basis: def2/J
   F. Weigend, Phys. Chem. Chem. Phys. 8, 1057 (2006).

================================================================================
                                        WARNINGS
                       Please study these warnings very carefully!
================================================================================


WARNING: MOInp is set but Guess=PModel. MOInp will be ignored!
         To read the initial guess from a file you must also specify
         'MORead' in the simple input or 'Guess MORead' in the %scf block


XCFun DFT library Copyright 2009-2010 Ulf Ekstrom and contributors.
See http://admol.org/xcfun for more information.
This is free software; see the source code for copying conditions.
There is ABSOLUTELY NO WARRANTY; not even for MERCHANTABILITY or FITNESS FOR A PARTICULAR PURPOSE.
For details see the documentation.
Scientific users of this library should cite U. Ekstrom, L. Visscher, R. Bast, A. J. Thorvaldsen and K. Ruud;
J.Chem.Theor.Comp. 2010, DOI: 10.1021/ct100117s
XCFun Version 0.99 

Warning: RI is on but no J-basis has been assigned. Assigning Def2/J (nothing to worry about!)
================================================================================

----- Orbital basis set information -----
Your calculation utilizes the basis: def2-QZVP
   F. Weigend and R. Ahlrichs, Phys. Chem. Chem. Phys. 7, 3297 (2005).

----- AuxJ basis set information -----
Your calculation utilizes the auxiliary basis: def2/J
   F. Weigend, Phys. Chem. Chem. Phys. 8, 1057 (2006).

================================================================================
                                        WARNINGS
                       Please study these warnings very carefully!
================================================================================


WARNING: MOInp is set but Guess=PModel. MOInp will be ignored!
         To read the initial guess from a file you must also specify
         'MORead' in the simple input or 'Guess MORead' in the %scf block


XCFun DFT library Copyright 2009-2010 Ulf Ekstrom and contributors.
See http://admol.org/xcfun for more information.
This is free software; see the source code for copying conditions.
There is ABSOLUTELY NO WARRANTY; not even for MERCHANTABILITY or FITNESS FOR A PARTICULAR PURPOSE.
For details see the documentation.
Scientific users of this library should cite U. Ekstrom, L. Visscher, R. Bast, A. J. Thorvaldsen and K. Ruud;
J.Chem.Theor.Comp. 2010, DOI: 10.1021/ct100117s
XCFun Version 0.99 

Warning: RI is on but no J-basis has been assigned. Assigning Def2/J (nothing to worry about!)
================================================================================

----- Orbital basis set information -----
Your calculation utilizes the basis: def2-QZVP
   F. Weigend and R. Ahlrichs, Phys. Chem. Chem. Phys. 7, 3297 (2005).

----- AuxJ basis set information -----
Your calculation utilizes the auxiliary basis: def2/J
   F. Weigend, Phys. Chem. Chem. Phys. 8, 1057 (2006).

================================================================================
                                        WARNINGS
                       Please study these warnings very carefully!
================================================================================


WARNING: MOInp is set but Guess=PModel. MOInp will be ignored!
         To read the initial guess from a file you must also specify
         'MORead' in the simple input or 'Guess MORead' in the %scf block


================================================================================
                                       INPUT FILE
================================================================================
NAME = bsse.inp
|  1> # Calculations for Boys-Bernardi CP correction
|  2> #
|  3> 
|  4> # --------------------------------------------
|  5> # First the monomer. In principle, you only need
|  6> # to run it once, but we keep it for clarity.
|  7> # --------------------------------------------
|  8> ! wb97x def2-qzvp VeryTightSCF PModel
|  9> %id "monomer"
| 10> * xyz 0 1
| 11> O   -0.702196054  -0.056060256   0.009942262
| 12> H   -1.022193224   0.846775782  -0.011488714
| 13> H    0.257521062   0.042121496   0.005218999
| 14> *
| 15> 
| 16> $new_job
| 17> ! wb97x def2-qzvp VeryTightSCF PModel
| 18> %id "monomer"
| 19> * xyz 0 1
| 20> O    2.220871067   0.026716792   0.000620476
| 21> H    2.597492682  -0.411663274   0.766744858
| 22> H    2.593135384  -0.449496183  -0.744782026 
| 23> *
| 24> 
| 25> # --------------------------------------------
| 26> # now the dimer
| 27> # --------------------------------------------
| 28> $new_job
| 29> ! wb97x def2-qzvp VeryTightSCF PModel
| 30> %id "dimer"
| 31> * xyz 0 1
| 32> O   -0.702196054  -0.056060256   0.009942262
| 33> H   -1.022193224   0.846775782  -0.011488714
| 34> H    0.257521062   0.042121496   0.005218999
| 35> O    2.220871067   0.026716792   0.000620476
| 36> H    2.597492682  -0.411663274   0.766744858
| 37> H    2.593135384  -0.449496183  -0.744782026 
| 38> *
| 39> 
| 40> # --------------------------------------------
| 41> # Now the calculation of the monomer at the
| 42> # dimer geometry but with the dimer basis set
| 43> # --------------------------------------------
| 44> $new_job
| 45> ! wb97x def2-qzvp VeryTightSCF PModel
| 46> %id "monomer_ghost"
| 47> * xyz 0 1
| 48> O   -0.702196054  -0.056060256   0.009942262
| 49> H   -1.022193224   0.846775782  -0.011488714
| 50> H    0.257521062   0.042121496   0.005218999
| 51> O:   2.220871067   0.026716792   0.000620476
| 52> H:   2.597492682  -0.411663274   0.766744858
| 53> H:   2.593135384  -0.449496183  -0.744782026 
| 54> *
| 55> 
| 56> $new_job
| 57> ! wb97x def2-qzvp VeryTightSCF PModel
| 58> %id "monomer_ghost"
| 59> * xyz 0 1
| 60> O:  -0.702196054  -0.056060256   0.009942262
| 61> H:  -1.022193224   0.846775782  -0.011488714
| 62> H:   0.257521062   0.042121496   0.005218999
| 63> O    2.220871067   0.026716792   0.000620476
| 64> H    2.597492682  -0.411663274   0.766744858
| 65> H    2.593135384  -0.449496183  -0.744782026 
| 66> *
| 67> 
| 68>                          ****END OF INPUT****
================================================================================


                 $$$$$$$$$$$$$$$$$$$$$$$$$$$$$$$$$$$$$$$$$$$$$$ 
                 $ THERE ARE  5 JOBS TO BE PROCESSED THIS RUN $
                 $$$$$$$$$$$$$$$$$$$$$$$$$$$$$$$$$$$$$$$$$$$$$$ 




                 $$$$$$$$$$$$$$$$  JOB NUMBER  1 $$$$$$$$$$$$$$


                       ****************************
                       * Single Point Calculation *
                       ****************************

---------------------------------
CARTESIAN COORDINATES (ANGSTROEM)
---------------------------------
  O     -0.702196   -0.056060    0.009942
  H     -1.022193    0.846776   -0.011489
  H      0.257521    0.042121    0.005219

----------------------------
CARTESIAN COORDINATES (A.U.)
----------------------------
  NO LB      ZA    FRAG     MASS         X           Y           Z
   0 O     8.0000    0    15.999   -1.326958   -0.105939    0.018788
   1 H     1.0000    0     1.008   -1.931665    1.600174   -0.021711
   2 H     1.0000    0     1.008    0.486644    0.079598    0.009862

--------------------------------
INTERNAL COORDINATES (ANGSTROEM)
--------------------------------
 O      0   0   0     0.000000000000     0.00000000     0.00000000
 H      1   0   0     0.958107711613     0.00000000     0.00000000
 H      1   2   0     0.964737740727   103.66482512     0.00000000

---------------------------
INTERNAL COORDINATES (A.U.)
---------------------------
 O      0   0   0     0.000000000000     0.00000000     0.00000000
 H      1   0   0     1.810561181746     0.00000000     0.00000000
 H      1   2   0     1.823090121031   103.66482512     0.00000000

---------------------
BASIS SET INFORMATION
---------------------
There are 2 groups of distinct atoms

 Group   1 Type O   : 15s8p3d2f1g contracted to 7s4p3d2f1g pattern {8211111/5111/111/11/1}
 Group   2 Type H   : 7s3p2d1f contracted to 4s3p2d1f pattern {4111/111/11/1}

Atom   0O    basis set group =>   1
Atom   1H    basis set group =>   2
Atom   2H    basis set group =>   2
---------------------------------
AUXILIARY/J BASIS SET INFORMATION
---------------------------------
There are 2 groups of distinct atoms

 Group   1 Type O   : 12s5p4d2f1g contracted to 6s4p3d1f1g pattern {711111/2111/211/2/1}
 Group   2 Type H   : 5s2p1d contracted to 3s1p1d pattern {311/2/1}

Atom   0O    basis set group =>   1
Atom   1H    basis set group =>   2
Atom   2H    basis set group =>   2
------------------------------------------------------------------------------
                             ORCA STARTUP CALCULATIONS
                           -- RI-GTO INTEGRALS CHOSEN --
------------------------------------------------------------------------------
------------------------------------------------------------------------------
                   ___                                                        
                  /   \      - P O W E R E D   B Y -                         
                 /     \                                                     
                 |  |  |   _    _      __       _____    __    __             
                 |  |  |  | |  | |    /  \     |  _  \  |  |  /  |          
                  \  \/   | |  | |   /    \    | | | |  |  | /  /          
                 / \  \   | |__| |  /  /\  \   | |_| |  |  |/  /          
                |  |  |   |  __  | /  /__\  \  |    /   |      \           
                |  |  |   | |  | | |   __   |  |    \   |  |\   \          
                \     /   | |  | | |  |  |  |  | |\  \  |  | \   \       
                 \___/    |_|  |_| |__|  |__|  |_| \__\ |__|  \__/        
                                                                              
                      - O R C A' S   B I G   F R I E N D -                    
                                      &                                       
                       - I N T E G R A L  F E E D E R -                       
                                                                              
 v1 FN, 2020, v2 2021, v3 2022-2024                                           
------------------------------------------------------------------------------


----------------------
SHARK INTEGRAL PACKAGE
----------------------

Number of atoms                             ...      3
Number of basis functions                   ...    117
Number of shells                            ...     37
Maximum angular momentum                    ...      4
Integral batch strategy                     ... SHARK/LIBINT Hybrid
RI-J (if used) integral strategy            ... SPLIT-RIJ (Revised 2003 algorithm where possible)
Printlevel                                  ...      1
Contraction scheme used                     ... SEGMENTED contraction
Prescreening option                         ... SCHWARTZ
   Thresh                                   ... 1.000e-12
   Tcut                                     ... 1.000e-14
   Tpresel                                  ... 1.000e-14 
Coulomb Range Separation                    ... NOT USED
Exchange Range Separation                   ... Long Range
   Mu parameter                             ... 3.000e-01
   Scaling (regular/separated)              ... 1.577e-01 8.423e-01
Multipole approximations                    ... NOT USED
Finite Nucleus Model                        ... NOT USED
CABS basis                                  ... NOT available
Auxiliary Coulomb fitting basis             ... AVAILABLE
   # of basis functions in Aux-J            ...     71
   # of shells in Aux-J                     ...     25
   Maximum angular momentum in Aux-J        ...      4
Auxiliary J/K fitting basis                 ... NOT available
Auxiliary Correlation fitting basis         ... NOT available
Auxiliary 'external' fitting basis          ... NOT available

Checking pre-screening integrals            ... done (  0.0 sec) Dimension = 37
Check shell pair data                       ... done (  0.0 sec)
Shell pair information
Shell pair cut-off parameter TPreSel        ...   1.0e-14
Total number of shell pairs                 ...       703
Shell pairs after pre-screening             ...       703
Total number of primitive shell pairs       ...      1591
Primitive shell pairs kept                  ...      1533
          la=0 lb=0:    120 shell pairs
          la=1 lb=0:    150 shell pairs
          la=1 lb=1:     55 shell pairs
          la=2 lb=0:    105 shell pairs
          la=2 lb=1:     70 shell pairs
          la=2 lb=2:     28 shell pairs
          la=3 lb=0:     60 shell pairs
          la=3 lb=1:     40 shell pairs
          la=3 lb=2:     28 shell pairs
          la=3 lb=3:     10 shell pairs
          la=4 lb=0:     15 shell pairs
          la=4 lb=1:     10 shell pairs
          la=4 lb=2:      7 shell pairs
          la=4 lb=3:      4 shell pairs
          la=4 lb=4:      1 shell pairs

Calculating one electron integrals          ... done (  0.0 sec)
Calculating RI/J V-Matrix + Cholesky decomp.... done (  0.0 sec)
Calculating Nuclear repulsion               ... done (  0.0 sec) ENN=      9.156714088061 Eh

Diagonalization of the overlap matrix:
Smallest eigenvalue                        ... 3.170e-04
Time for diagonalization                   ...    0.001 sec
Threshold for overlap eigenvalues          ... 1.000e-07
Number of eigenvalues below threshold      ... 0
Time for construction of square roots      ...    0.001 sec
Total time needed                          ...    0.005 sec

-------------------
DFT GRID GENERATION
-------------------

General Integration Accuracy     IntAcc      ... 4.388
Radial Grid Type                 RadialGrid  ... OptM3 with GC (2021)
Angular Grid (max. ang.)         AngularGrid ... 4 (Lebedev-302)
Angular grid pruning method      GridPruning ... 4 (adaptive)
Weight generation scheme         WeightScheme... mBecke (2022)
Basis function cutoff            BFCut       ... 1.0000e-12
Integration weight cutoff        WCut        ... 1.0000e-14
Partially contracted basis set               ... off
Rotationally invariant grid construction     ... off
Angular grids for H and He will be reduced by one unit
Diffuse basis detected: some atoms will have their outermost
                        angular grid increased by 1.

Total number of grid points                  ...    13069
Total number of batches                      ...      206
Average number of points per batch           ...       63
Average number of grid points per atom       ...     4356

--------------------
COSX GRID GENERATION
--------------------

GRIDX 1
-------
General Integration Accuracy     IntAcc      ... 3.816
Radial Grid Type                 RadialGrid  ... OptM3 with GC (2021)
Angular Grid (max. ang.)         AngularGrid ... 1 (Lebedev-50)
Angular grid pruning method      GridPruning ... 4 (adaptive)
Weight generation scheme         WeightScheme... mBecke (2022)
Basis function cutoff            BFCut       ... 1.0000e-12
Integration weight cutoff        WCut        ... 1.0000e-14
Partially contracted basis set               ... on
Rotationally invariant grid construction     ... off
Angular grids for H and He will be reduced by one unit
Diffuse basis detected: some atoms will have their outermost
                        angular grid increased by 1.

Total number of grid points                  ...     1707
Total number of batches                      ...       16
Average number of points per batch           ...      106
Average number of grid points per atom       ...      569
UseSFitting                                  ... on

GRIDX 2
-------
General Integration Accuracy     IntAcc      ... 4.020
Radial Grid Type                 RadialGrid  ... OptM3 with GC (2021)
Angular Grid (max. ang.)         AngularGrid ... 2 (Lebedev-110)
Angular grid pruning method      GridPruning ... 4 (adaptive)
Weight generation scheme         WeightScheme... mBecke (2022)
Basis function cutoff            BFCut       ... 1.0000e-12
Integration weight cutoff        WCut        ... 1.0000e-14
Partially contracted basis set               ... on
Rotationally invariant grid construction     ... off
Angular grids for H and He will be reduced by one unit
Diffuse basis detected: some atoms will have their outermost
                        angular grid increased by 1.

Total number of grid points                  ...     3933
Total number of batches                      ...       33
Average number of points per batch           ...      119
Average number of grid points per atom       ...     1311
UseSFitting                                  ... on

GRIDX 3
-------
General Integration Accuracy     IntAcc      ... 4.338
Radial Grid Type                 RadialGrid  ... OptM3 with GC (2021)
Angular Grid (max. ang.)         AngularGrid ... 3 (Lebedev-194)
Angular grid pruning method      GridPruning ... 4 (adaptive)
Weight generation scheme         WeightScheme... mBecke (2022)
Basis function cutoff            BFCut       ... 1.0000e-12
Integration weight cutoff        WCut        ... 1.0000e-14
Partially contracted basis set               ... on
Rotationally invariant grid construction     ... off
Angular grids for H and He will be reduced by one unit
Diffuse basis detected: some atoms will have their outermost
                        angular grid increased by 1.

Total number of grid points                  ...     8528
Total number of batches                      ...       68
Average number of points per batch           ...      125
Average number of grid points per atom       ...     2843
UseSFitting                                  ... on
Initializing property integral containers    ... done (  0.0 sec)

SHARK setup successfully completed in   0.1 seconds

Maximum memory used throughout the entire STARTUP-calculation: 25.9 MB
-------------------------------------------------------------------------------
                                 ORCA GUESS
                   Start orbitals & Density for SCF / CASSCF
-------------------------------------------------------------------------------

------------
SCF SETTINGS
------------
Hamiltonian:
 Density Functional     Method          .... DFT(GTOs)
 Exchange Functional    Exchange        .... WB97X
 Correlation Functional Correlation     .... WB97X
 Gradients option       PostSCFGGA      .... off
 Hybrid DFT is turned on
   Fraction HF Exchange ScalHFX         ....  0.157706
   Scaling of DF-GGA-X  ScalDFX         ....  0.000000
   Scaling of DF-GGA-C  ScalDFC         ....  1.000000
   Scaling of DF-LDA-C  ScalLDAC        ....  1.000000
   Perturbative correction              ....  0.000000
 Long-range corrected/Screened/Range-Separated Hybrid DFT is turned on
   Amount of maximum screened exact exchange              ....  0.842294
   Range separation parameter mu (erf(mu*r12)/r12)        ....  0.300000
 RI-approximation to the Coulomb term is turned on
   Number of AuxJ basis functions       .... 71
   RIJ-COSX (HFX calculated with COS-X)).... on


General Settings:
 Integral files         IntName         .... bsse
 Hartree-Fock type      HFTyp           .... RHF
 Total Charge           Charge          ....    0
 Multiplicity           Mult            ....    1
 Number of Electrons    NEL             ....   10
 Basis Dimension        Dim             ....  117
 Nuclear Repulsion      ENuc            ....      9.1567140881 Eh

Convergence Acceleration:
 AO-DIIS                CNVDIIS         .... on
   Start iteration      DIISMaxIt       ....    12
   Startup error        DIISStart       ....  0.200000
   # of expansion vecs  DIISMaxEq       ....     5
   Bias factor          DIISBfac        ....   1.050
   Max. coefficient     DIISMaxC        ....  10.000
 MO-DIIS                CNVKDIIS        .... off
 Trust-Rad. Augm. Hess. CNVTRAH         .... auto
   Auto Start mean grad. ratio tolernc. ....  1.125000
   Auto Start start iteration           ....    50
   Auto Start num. interpolation iter.  ....    10
   Max. Number of Micro iterations      ....    24
   Max. Number of Macro iterations      .... Maxiter - #DIIS iter
   Number of Davidson start vectors     ....     2
   Converg. threshold    (grad. norm)   ....   2.000e-06
   Grad. Scal. Fac. for Micro threshold ....   0.100
   Minimum threshold for Micro iter.    ....   1.000e-02
   NR start threshold (gradient norm)   ....   1.000e-04
   Initial trust radius                 ....   0.400
   Minimum AH scaling param. (alpha)    ....   1.000
   Maximum AH scaling param. (alpha)    .... 1000.000
   Quad. conv. algorithm                .... NR
   White noise on init. David. guess    .... on
   Maximum white noise                  ....   0.010
   Pseudo random numbers                .... off
   Inactive MOs                         .... canonical
   Orbital update algorithm             .... Taylor
   Preconditioner                       .... Diag
   Full preconditioner red. dimension   ....   250
 SOSCF                  CNVSOSCF        .... on
   Start iteration      SOSCFMaxIt      ....   150
   Startup grad/error   SOSCFStart      ....  0.003300
   Hessian update       SOSCFHessUp     .... L-BFGS
 Level Shifting         CNVShift        .... on
   Level shift para.    LevelShift      ....    0.2500
   Turn off err/grad.   ShiftErr        ....    0.0010
 Zerner damping         CNVZerner       .... off
 Static damping         CNVDamp         .... on
   Fraction old density DampFac         ....    0.7000
   Max. Damping (<1)    DampMax         ....    0.9800
   Min. Damping (>=0)   DampMin         ....    0.0000
   Turn off err/grad.   DampErr         ....    0.1000

SCF Procedure:
 Maximum # iterations   MaxIter         ....   125
 SCF integral mode      SCFMode         .... Direct
   Integral package                     .... SHARK and LIBINT hybrid scheme
 Reset frequency        DirectResetFreq ....    20
 Integral Threshold     Thresh          ....  1.000e-12 Eh
 Primitive CutOff       TCut            ....  1.000e-14 Eh

Convergence Tolerance:
 Convergence Check Mode ConvCheckMode   .... Total+1el-Energy
 Convergence forced     ConvForced      .... 0
 Energy Change          TolE            ....  1.000e-09 Eh
 1-El. energy change                    ....  1.000e-06 Eh
 Orbital Gradient       TolG            ....  2.000e-06
 Orbital Rotation angle TolX            ....  2.000e-06
 DIIS Error             TolErr          ....  1.000e-08

------------------------------
INITIAL GUESS: MODEL POTENTIAL
------------------------------
Loading Hartree-Fock densities                     ... done
Calculating cut-offs                               ... done
Initializing the effective Hamiltonian             ... done
Setting up the integral package (SHARK)            ... done
Starting the Coulomb interaction                   ... done (   0.0 sec)
Making the grid                                    ... done (   0.0 sec)
Mapping shells                                     ... done
Starting the XC term evaluation                    ... done (   0.0 sec)
  promolecular density results
     # of electrons  =      9.998844352
     EX              =     -8.729738648
     EC              =     -0.316110849
     EX+EC           =     -9.045849498
Transforming the Hamiltonian                       ... done (   0.0 sec)
Diagonalizing the Hamiltonian                      ... done (   0.0 sec)
Back transforming the eigenvectors                 ... done (   0.0 sec)
Now organizing SCF variables                       ... done
                      ------------------
                      INITIAL GUESS DONE (   0.1 sec)
                      ------------------
             **** ENERGY FILE WAS UPDATED (bsse.en.tmp) ****
Finished Guess after   0.1 sec
Maximum memory used throughout the entire GUESS-calculation: 11.8 MB

-------------------------------------------------------------------------------------------
                                      ORCA LEAN-SCF
                              memory conserving SCF solver
-------------------------------------------------------------------------------------------

----------------------------------------D-I-I-S--------------------------------------------
Iteration    Energy (Eh)           Delta-E    RMSDP     MaxDP     DIISErr   Damp  Time(sec)
-------------------------------------------------------------------------------------------
               ***  Starting incremental Fock matrix formation  ***
    1    -76.3555666426486823     0.00e+00  1.25e-03  3.75e-02  3.39e-01  0.700   0.4
    2    -76.3979888784645027    -4.24e-02  8.50e-04  2.97e-02  1.58e-01  0.700   0.2
                               ***Turning on AO-DIIS***
    3    -76.4155012929410020    -1.75e-02  3.72e-04  1.72e-02  5.52e-02  0.700   0.2
    4    -76.4258846696418317    -1.04e-02  7.27e-04  3.44e-02  3.02e-02  0.000   0.2
    5    -76.4486750467338965    -2.28e-02  6.15e-05  1.11e-03  4.81e-03  0.000   0.2
                              *** Initializing SOSCF ***
---------------------------------------S-O-S-C-F--------------------------------------
Iteration    Energy (Eh)           Delta-E    RMSDP     MaxDP     MaxGrad    Time(sec)
--------------------------------------------------------------------------------------
    6    -76.4486958044930986    -2.08e-05  3.19e-05  1.01e-03  6.52e-04     0.2
               *** Restarting incremental Fock matrix formation ***
    7    -76.4486765292762556     1.93e-05  1.66e-05  6.32e-04  1.39e-04     0.3
    8    -76.4486766745746564    -1.45e-07  9.13e-06  3.66e-04  5.88e-05     0.3
    9    -76.4486766957551964    -2.12e-08  9.93e-07  3.68e-05  2.09e-05     0.4
   10    -76.4486766974547294    -1.70e-09  8.40e-07  2.97e-05  1.10e-05     0.3
   11    -76.4486766983352055    -8.80e-10  4.30e-08  1.13e-06  6.67e-07     0.4
                 **** Energy Check signals convergence ****

               *****************************************************
               *                     SUCCESS                       *
               *           SCF CONVERGED AFTER  11 CYCLES          *
               *****************************************************

Recomputing exchange energy using gridx3       ... done (    0.485 sec)
Old exchange energy                            :     -2.744027380 Eh
New exchange energy                            :     -2.744027568 Eh
Exchange energy change after final integration :     -0.000000188 Eh
Total energy after final integration           :    -76.448676887 Eh
             **** ENERGY FILE WAS UPDATED (bsse.en.tmp) ****

----------------
TOTAL SCF ENERGY
----------------

Total Energy       :        -76.44867688682875 Eh           -2080.27426 eV

Components:
Nuclear Repulsion  :          9.15671408806098 Eh             249.16686 eV
Electronic Energy  :        -85.60539078639619 Eh           -2329.44111 eV
One Electron Energy:       -123.00712467438467 Eh           -3347.19403 eV
Two Electron Energy:         37.40173388798848 Eh            1017.75292 eV

Virial components:
Potential Energy   :       -152.62301555936762 Eh           -4153.08339 eV
Kinetic Energy     :         76.17433867253887 Eh            2072.80913 eV
Virial Ratio       :          2.00360145186779

DFT components:
N(Alpha)           :        4.999994937390 electrons
N(Beta)            :        4.999994937390 electrons
N(Total)           :        9.999989874779 electrons
E(XC)              :       -6.568729768669 Eh       

---------------
SCF CONVERGENCE
---------------

  Last Energy change         ...    8.8048e-10  Tolerance :   1.0000e-09
  Last MAX-Density change    ...    1.1341e-06  Tolerance :   1.0000e-08
  Last RMS-Density change    ...    4.3017e-08  Tolerance :   1.0000e-09
  Last DIIS Error            ...    6.5207e-04  Tolerance :   1.0000e-08
  Last Orbital Gradient      ...    6.6672e-07  Tolerance :   2.0000e-06
  Last Orbital Rotation      ...    1.6584e-06  Tolerance :   2.0000e-06


----------------
ORBITAL ENERGIES
----------------

  NO   OCC          E(Eh)            E(eV) 
   0   2.0000     -19.200715      -522.4780 
   1   2.0000      -1.140739       -31.0411 
   2   2.0000      -0.643173       -17.5016 
   3   2.0000      -0.505765       -13.7626 
   4   2.0000      -0.428246       -11.6532 
   5   0.0000       0.095105         2.5879 
   6   0.0000       0.151656         4.1268 
   7   0.0000       0.330280         8.9874 
   8   0.0000       0.353338         9.6148 
   9   0.0000       0.356162         9.6917 
  10   0.0000       0.394615        10.7380 
  11   0.0000       0.474672        12.9165 
  12   0.0000       0.541966        14.7476 
  13   0.0000       0.605135        16.4666 
  14   0.0000       0.658956        17.9311 
  15   0.0000       0.690504        18.7896 
*Only the first 10 virtual orbitals were printed.

                    ********************************
                    * MULLIKEN POPULATION ANALYSIS *
                    ********************************

-----------------------
MULLIKEN ATOMIC CHARGES
-----------------------
   0 O :   -0.427857
   1 H :    0.212918
   2 H :    0.214939
Sum of atomic charges:   -0.0000000

--------------------------------
MULLIKEN REDUCED ORBITAL CHARGES
--------------------------------
  0 O s       :     3.790101  s :     3.790101
      pz      :     1.893227  p :     4.619197
      px      :     1.301680
      py      :     1.424290
      dz2     :     0.003405  d :     0.017518
      dxz     :     0.000616
      dyz     :     0.001559
      dx2y2   :     0.009355
      dxy     :     0.002583
      f0      :     0.000146  f :     0.001031
      f+1     :     0.000382
      f-1     :     0.000281
      f+2     :     0.000003
      f-2     :     0.000010
      f+3     :     0.000241
      f-3     :    -0.000032
      g0      :    -0.000000  g :     0.000011
      g+1     :     0.000001
      g-1     :     0.000002
      g+2     :     0.000002
      g-2     :    -0.000000
      g+3     :     0.000003
      g-3     :     0.000000
      g+4     :     0.000004
      g-4     :    -0.000000

  1 H s       :     0.674269  s :     0.674269
      pz      :     0.045550  p :     0.097901
      px      :     0.026586
      py      :     0.025764
      dz2     :     0.000513  d :     0.013524
      dxz     :     0.001007
      dyz     :     0.005282
      dx2y2   :     0.004034
      dxy     :     0.002688
      f0      :     0.000260  f :     0.001389
      f+1     :     0.000042
      f-1     :     0.000096
      f+2     :     0.000216
      f-2     :     0.000175
      f+3     :     0.000200
      f-3     :     0.000401

  2 H s       :     0.673545  s :     0.673545
      pz      :     0.044839  p :     0.096770
      px      :     0.021485
      py      :     0.030447
      dz2     :     0.000525  d :     0.013377
      dxz     :     0.006189
      dyz     :    -0.000006
      dx2y2   :     0.001518
      dxy     :     0.005151
      f0      :     0.000254  f :     0.001369
      f+1     :     0.000106
      f-1     :     0.000033
      f+2     :     0.000371
      f-2     :     0.000009
      f+3     :     0.000173
      f-3     :     0.000424



                     *******************************
                     * LOEWDIN POPULATION ANALYSIS *
                     *******************************

----------------------
LOEWDIN ATOMIC CHARGES
----------------------
   0 O :    0.716519
   1 H :   -0.365372
   2 H :   -0.351147

-------------------------------
LOEWDIN REDUCED ORBITAL CHARGES
-------------------------------
  0 O s       :     3.029126  s :     3.029126
      pz      :     1.544982  p :     4.192365
      px      :     1.270614
      py      :     1.376769
      dz2     :     0.008781  d :     0.052246
      dxz     :     0.000449
      dyz     :     0.001207
      dx2y2   :     0.030077
      dxy     :     0.011732
      f0      :     0.001014  f :     0.009275
      f+1     :     0.000970
      f-1     :     0.000700
      f+2     :     0.000034
      f-2     :     0.000125
      f+3     :     0.003527
      f-3     :     0.002906
      g0      :     0.000021  g :     0.000469
      g+1     :     0.000026
      g-1     :     0.000064
      g+2     :     0.000079
      g-2     :     0.000050
      g+3     :     0.000182
      g-3     :     0.000003
      g+4     :     0.000026
      g-4     :     0.000018

  1 H s       :     0.688943  s :     0.688943
      pz      :     0.140216  p :     0.448660
      px      :     0.098125
      py      :     0.210319
      dz2     :     0.013820  d :     0.188504
      dxz     :     0.008025
      dyz     :     0.063136
      dx2y2   :     0.059940
      dxy     :     0.043583
      f0      :     0.006283  f :     0.039264
      f+1     :     0.001150
      f-1     :     0.002892
      f+2     :     0.006605
      f-2     :     0.004133
      f+3     :     0.006208
      f-3     :     0.011994

  2 H s       :     0.686459  s :     0.686459
      pz      :     0.137223  p :     0.440936
      px      :     0.194698
      py      :     0.109014
      dz2     :     0.013655  d :     0.185460
      dxz     :     0.068989
      dyz     :     0.000705
      dx2y2   :     0.036930
      dxy     :     0.065182
      f0      :     0.006103  f :     0.038292
      f+1     :     0.003003
      f-1     :     0.000943
      f+2     :     0.009925
      f-2     :     0.000481
      f+3     :     0.005279
      f-3     :     0.012559



                      *****************************
                      * MAYER POPULATION ANALYSIS *
                      *****************************

  NA   - Mulliken gross atomic population
  ZA   - Total nuclear charge
  QA   - Mulliken gross atomic charge
  VA   - Mayer's total valence
  BVA  - Mayer's bonded valence
  FA   - Mayer's free valence

  ATOM       NA         ZA         QA         VA         BVA        FA
  0 O      8.4279     8.0000    -0.4279     2.0688     2.0688    -0.0000
  1 H      0.7871     1.0000     0.2129     1.0584     1.0584     0.0000
  2 H      0.7851     1.0000     0.2149     1.0560     1.0560    -0.0000

  Mayer bond orders larger than 0.100000
B(  0-O ,  1-H ) :   1.0356 B(  0-O ,  2-H ) :   1.0332 

-------
TIMINGS
-------

Total SCF time: 0 days 0 hours 0 min 3 sec 

Total time                  ....       3.959 sec
Sum of individual times     ....       3.930 sec  ( 99.2%)

SCF preparation             ....       0.052 sec  (  1.3%)
Fock matrix formation       ....       3.384 sec  ( 85.5%)
  Startup                   ....       0.021 sec  (  0.6% of F)
  Split-RI-J                ....       0.107 sec  (  3.1% of F)
  Chain of spheres X        ....       2.511 sec  ( 74.2% of F)
  XC integration            ....       0.695 sec  ( 20.5% of F)
    XC Preparation          ....       0.000 sec  (  0.0% of XC)
    Basis function eval.    ....       0.173 sec  ( 24.9% of XC)
    Density eval.           ....       0.088 sec  ( 12.6% of XC)
    XC-Functional eval.     ....       0.042 sec  (  6.1% of XC)
    XC-Potential eval.      ....       0.237 sec  ( 34.1% of XC)
Diagonalization             ....       0.000 sec  (  0.0%)
Density matrix formation    ....       0.126 sec  (  3.2%)
Total Energy calculation    ....       0.093 sec  (  2.4%)
Population analysis         ....       0.032 sec  (  0.8%)
Orbital Transformation      ....       0.015 sec  (  0.4%)
Orbital Orthonormalization  ....       0.000 sec  (  0.0%)
DIIS solution               ....       0.140 sec  (  3.5%)
SOSCF solution              ....       0.088 sec  (  2.2%)
Finished LeanSCF after   4.0 sec

Maximum memory used throughout the entire LEANSCF-calculation: 10.6 MB

-------------------------   --------------------
FINAL SINGLE POINT ENERGY       -76.448676886829
-------------------------   --------------------


------------------------------------------------------------------------------
                              ORCA PROPERTY CALCULATIONS
------------------------------------------------------------------------------

GBWName                                 ... bsse.gbw
Number of atoms                         ...      3
Number of basis functions               ...    117
Max core memory                         ...   1024 MB

Electric properties:
Dipole moment                           ... YES
Quadrupole moment                       ...  NO
Static polarizability (Dipole/Dipole)   ...  NO
Static polarizability (Dipole/Quad.)    ...  NO
Static polarizability (Quad./Quad.)     ...  NO
Static polarizability (Velocity)        ...  NO

Atomic electric properties:
Dipole moment                           ...  NO
Quadrupole moment                       ...  NO
Static polarizability                   ...  NO

Choice of electric origin               ... Center of mass
Position of electric origin             ...    -1.259316    -0.000094     0.016023

General magnetic properties:
Magnetizability                         ...  NO

EPR properties:
g-Tensor (aka g-matrix)                 ...  NO
Zero-Field splitting spin-orbit         ...  NO
Zero-field splitting spin-spin          ...  NO
Hyperfine couplings                     ...  NO (   0 nuclei)
Quadrupole couplings                    ...  NO (   0 nuclei)
Contact density                         ...  NO (   0 nuclei)

NMR properties:
Chemical shifts                         ...  NO (   0 nuclei)
Spin-rotation constants                 ...  NO (   0 nuclei)
Spin-spin couplings                     ...  NO (   0 nuclei,    0 pairs)

Choice of magnetic origin               ... GIAO
Position of magnetic origin             ...     0.000000     0.000000     0.000000

Properties with geometric perturbations:
SCF Hessian                             ...  NO
IR spectrum                             ...  NO
VCD spectrum                            ...  NO
X-ray spectroscopy properties:
SCF XES/XAS/RIXS spectra                ...  NO


-------------
DIPOLE MOMENT
-------------

Method             : SCF
Type of density    : Electron Density
Multiplicity       :   1
Irrep              :   0
Energy             :   -76.4486768868287498 Eh
Relativity type    : 
Basis              : AO
                                X                 Y                 Z
Electronic contribution:     -0.120458816      -0.185941037       0.004857216
Nuclear contribution   :      0.532477702       0.833207805      -0.021769759
                        -----------------------------------------
Total Dipole Moment    :      0.412018885       0.647266768      -0.016912543
                        -----------------------------------------
Magnitude (a.u.)       :      0.767463266
Magnitude (Debye)      :      1.950736595



--------------------
Rotational spectrum 
--------------------
 
Rotational constants in cm-1:            26.676765            14.634384             9.450186 
Rotational constants in MHz :        799749.293315        438727.801417        283309.437561 

Dipole components along the rotational axes: 
x,y,z [a.u.] :     0.010693     0.767389    -0.000005 
x,y,z [Debye]:     0.027179     1.950547    -0.000012 

 

Dipole moment calculation done in   0.0 sec 

Maximum memory used throughout the entire PROP-calculation: 6.9 MB

--------------------------------
SUGGESTED CITATIONS FOR THIS RUN
--------------------------------

Below you find a list of papers that are relevant to this ORCA run
We neither can nor want to force you to cite these papers, but we appreciate if you do
You receive ORCA, which is the product of decades of hard work by many enthusiastic individuals, for free
The only thing we kindly ask in return is that you cite our papers,
We deeply appreciate it, if you show your appreciation for ORCA by not just citing the generic ORCA reference.

Please note that relegating all ORCA citations to the supporting information does *not* help us.
SI sections are not indexed - citations you put there will not count into any citation statistics
But we need these citations in order to attract the funding resources that allow us to do what we are doing

Therefore, if you are a happy ORCA user, please consider citing a few of the papers listed below in the main body of your paper

In addition to the list printed below, the program has created the file bsse.bibtex that contains the list in bibtex format
You can import this file easily into all common literature databanks and citation aid programs


List of essential papers. We consider these as the minimum necessary citations

  1. Neese,F.
     Software update: the ORCA program system, version 5.0
     WIRES Comput. Molec. Sci., 2022 12(1)e1606
     doi.org/10.1002/wcms.1606

List of papers to cite with high priority. The work reported in these papers was absolutely
necessary for this run to complete.
Our perspective: the developers of density functionals and basis sets usually get cited in chemistry papers
Good! But without the algorithms to do something with them, the functionals or basis sets would not do anything.
Hence, in our opinion, the algorithm design and method developments papers are equally worthy of getting cited

  1. Neese,F.
     An improvement of the resolution of the identity approximation for the formation of the Coulomb matrix
     J. Comp. Chem., 2003 24(14)1740-1747
     doi.org/10.1002/jcc.10318
  2. Neese,F.; Wennmohs,F.; Hansen,A.; Becker,U.
     Efficient, approximate and parallel Hartree-Fock and hybrid DFT calculations. A 'chain-of-spheres' algorithm for the Hartree-Fock exchange
     Chem. Phys., 2009 356(1-3)98-109
     doi.org/10.1016/j.chemphys.2008.10.036
  3. Helmich-Paris,B.; de Souza,B.; Neese,F.; Izsák,R.
     An improved chain of spheres for exchange algorithm
     J. Chem. Phys., 2021 155 104109
     doi.org/doi: 10.1063/5.0058766.
  4. Neese,F.
     The SHARK Integral Generation and Digestion System
     J. Comp. Chem., 2022  1-16
     doi.org/10.1002/jcc.26942

List of suggested additional citations. These are papers that are important in the 'surrounding' of 
of this run, or papers that preceded the highly important papers. If you like your results we are grateful for a citation.

  1. Izsak,R.; Neese,F.
     An overlap fitted chain of spheres exchange method
     J. Chem. Phys., 2011 135 144105
     doi.org/10.1063/1.3646921
  2. Izsak,R.; Hansen,A.; Neese,F.
     The resolution of identity and chain of spheres approximations for the LPNO-CCSD singles Fock term
     Molec. Phys., 2012 110 2413-2417
     doi.org/10.1080/00268976.2012.687466
  3. Neese,F.
     The ORCA program system
     WIRES Comput. Molec. Sci., 2012 2(1)73-78
     doi.org/10.1002/wcms.81
  4. Izsak,R.; Neese,F.; Klopper,W.
     Robust fitting techniques in the chain of spheres approximation to the Fock exchange: The role of the complementary space
     J. Chem. Phys., 2013 139 
     doi.org/10.1063/1.4819264
  5. Neese,F.
     Software update: the ORCA program system, version 4.0
     WIRES Comput. Molec. Sci., 2018 8(1)1-6
     doi.org/10.1002/wcms.1327
  6. Neese,F.; Wennmohs,F.; Becker,U.; Riplinger,C.
     The ORCA quantum chemistry program package
     J. Chem. Phys., 2020 152 Art. No. L224108
     doi.org/10.1063/5.0004608

List of optional additional citations

  1. Neese,F.
     Approximate second-order SCF convergence for spin unrestricted wavefunctions
     Chem. Phys. Lett., 2000 325(1-3)93-98
     doi.org/10.1016/s0009-2614(00)00662-x

Timings for individual modules:

Sum of individual times          ...        4.429 sec (=   0.074 min)
Startup calculation              ...        0.185 sec (=   0.003 min)   4.2 %
SCF iterations                   ...        4.166 sec (=   0.069 min)  94.1 %
Property calculations            ...        0.078 sec (=   0.001 min)   1.8 %


                 $$$$$$$$$$$$$$$$  JOB NUMBER  2 $$$$$$$$$$$$$$


                       ****************************
                       * Single Point Calculation *
                       ****************************

---------------------------------
CARTESIAN COORDINATES (ANGSTROEM)
---------------------------------
  O      2.220871    0.026717    0.000620
  H      2.597493   -0.411663    0.766745
  H      2.593135   -0.449496   -0.744782

----------------------------
CARTESIAN COORDINATES (A.U.)
----------------------------
  NO LB      ZA    FRAG     MASS         X           Y           Z
   0 O     8.0000    0    15.999    4.196838    0.050487    0.001173
   1 H     1.0000    0     1.008    4.908550   -0.777931    1.448938
   2 H     1.0000    0     1.008    4.900316   -0.849425   -1.407434

--------------------------------
INTERNAL COORDINATES (ANGSTROEM)
--------------------------------
 O      0   0   0     0.000000000000     0.00000000     0.00000000
 H      1   0   0     0.959670512127     0.00000000     0.00000000
 H      1   2   0     0.959679326264   103.95523303     0.00000000

---------------------------
INTERNAL COORDINATES (A.U.)
---------------------------
 O      0   0   0     0.000000000000     0.00000000     0.00000000
 H      1   0   0     1.813514446720     0.00000000     0.00000000
 H      1   2   0     1.813531103024   103.95523303     0.00000000

---------------------
BASIS SET INFORMATION
---------------------
There are 2 groups of distinct atoms

 Group   1 Type O   : 15s8p3d2f1g contracted to 7s4p3d2f1g pattern {8211111/5111/111/11/1}
 Group   2 Type H   : 7s3p2d1f contracted to 4s3p2d1f pattern {4111/111/11/1}

Atom   0O    basis set group =>   1
Atom   1H    basis set group =>   2
Atom   2H    basis set group =>   2
---------------------------------
AUXILIARY/J BASIS SET INFORMATION
---------------------------------
There are 2 groups of distinct atoms

 Group   1 Type O   : 12s5p4d2f1g contracted to 6s4p3d1f1g pattern {711111/2111/211/2/1}
 Group   2 Type H   : 5s2p1d contracted to 3s1p1d pattern {311/2/1}

Atom   0O    basis set group =>   1
Atom   1H    basis set group =>   2
Atom   2H    basis set group =>   2
------------------------------------------------------------------------------
                             ORCA STARTUP CALCULATIONS
                           -- RI-GTO INTEGRALS CHOSEN --
------------------------------------------------------------------------------
------------------------------------------------------------------------------
                   ___                                                        
                  /   \      - P O W E R E D   B Y -                         
                 /     \                                                     
                 |  |  |   _    _      __       _____    __    __             
                 |  |  |  | |  | |    /  \     |  _  \  |  |  /  |          
                  \  \/   | |  | |   /    \    | | | |  |  | /  /          
                 / \  \   | |__| |  /  /\  \   | |_| |  |  |/  /          
                |  |  |   |  __  | /  /__\  \  |    /   |      \           
                |  |  |   | |  | | |   __   |  |    \   |  |\   \          
                \     /   | |  | | |  |  |  |  | |\  \  |  | \   \       
                 \___/    |_|  |_| |__|  |__|  |_| \__\ |__|  \__/        
                                                                              
                      - O R C A' S   B I G   F R I E N D -                    
                                      &                                       
                       - I N T E G R A L  F E E D E R -                       
                                                                              
 v1 FN, 2020, v2 2021, v3 2022-2024                                           
------------------------------------------------------------------------------


----------------------
SHARK INTEGRAL PACKAGE
----------------------

Number of atoms                             ...      3
Number of basis functions                   ...    117
Number of shells                            ...     37
Maximum angular momentum                    ...      4
Integral batch strategy                     ... SHARK/LIBINT Hybrid
RI-J (if used) integral strategy            ... SPLIT-RIJ (Revised 2003 algorithm where possible)
Printlevel                                  ...      1
Contraction scheme used                     ... SEGMENTED contraction
Prescreening option                         ... SCHWARTZ
   Thresh                                   ... 1.000e-12
   Tcut                                     ... 1.000e-14
   Tpresel                                  ... 1.000e-14 
Coulomb Range Separation                    ... NOT USED
Exchange Range Separation                   ... Long Range
   Mu parameter                             ... 3.000e-01
   Scaling (regular/separated)              ... 1.577e-01 8.423e-01
Multipole approximations                    ... NOT USED
Finite Nucleus Model                        ... NOT USED
CABS basis                                  ... NOT available
Auxiliary Coulomb fitting basis             ... AVAILABLE
   # of basis functions in Aux-J            ...     71
   # of shells in Aux-J                     ...     25
   Maximum angular momentum in Aux-J        ...      4
Auxiliary J/K fitting basis                 ... NOT available
Auxiliary Correlation fitting basis         ... NOT available
Auxiliary 'external' fitting basis          ... NOT available

Checking pre-screening integrals            ... done (  0.0 sec) Dimension = 37
Check shell pair data                       ... done (  0.0 sec)
Shell pair information
Shell pair cut-off parameter TPreSel        ...   1.0e-14
Total number of shell pairs                 ...       703
Shell pairs after pre-screening             ...       703
Total number of primitive shell pairs       ...      1591
Primitive shell pairs kept                  ...      1533
          la=0 lb=0:    120 shell pairs
          la=1 lb=0:    150 shell pairs
          la=1 lb=1:     55 shell pairs
          la=2 lb=0:    105 shell pairs
          la=2 lb=1:     70 shell pairs
          la=2 lb=2:     28 shell pairs
          la=3 lb=0:     60 shell pairs
          la=3 lb=1:     40 shell pairs
          la=3 lb=2:     28 shell pairs
          la=3 lb=3:     10 shell pairs
          la=4 lb=0:     15 shell pairs
          la=4 lb=1:     10 shell pairs
          la=4 lb=2:      7 shell pairs
          la=4 lb=3:      4 shell pairs
          la=4 lb=4:      1 shell pairs

Calculating one electron integrals          ... done (  0.0 sec)
Calculating RI/J V-Matrix + Cholesky decomp.... done (  0.0 sec)
Calculating Nuclear repulsion               ... done (  0.0 sec) ENN=      9.172591109231 Eh

Diagonalization of the overlap matrix:
Smallest eigenvalue                        ... 3.134e-04
Time for diagonalization                   ...    0.001 sec
Threshold for overlap eigenvalues          ... 1.000e-07
Number of eigenvalues below threshold      ... 0
Time for construction of square roots      ...    0.001 sec
Total time needed                          ...    0.011 sec

-------------------
DFT GRID GENERATION
-------------------

General Integration Accuracy     IntAcc      ... 4.388
Radial Grid Type                 RadialGrid  ... OptM3 with GC (2021)
Angular Grid (max. ang.)         AngularGrid ... 4 (Lebedev-302)
Angular grid pruning method      GridPruning ... 4 (adaptive)
Weight generation scheme         WeightScheme... mBecke (2022)
Basis function cutoff            BFCut       ... 1.0000e-12
Integration weight cutoff        WCut        ... 1.0000e-14
Partially contracted basis set               ... off
Rotationally invariant grid construction     ... off
Angular grids for H and He will be reduced by one unit
Diffuse basis detected: some atoms will have their outermost
                        angular grid increased by 1.

Total number of grid points                  ...    13080
Total number of batches                      ...      206
Average number of points per batch           ...       63
Average number of grid points per atom       ...     4360

--------------------
COSX GRID GENERATION
--------------------

GRIDX 1
-------
General Integration Accuracy     IntAcc      ... 3.816
Radial Grid Type                 RadialGrid  ... OptM3 with GC (2021)
Angular Grid (max. ang.)         AngularGrid ... 1 (Lebedev-50)
Angular grid pruning method      GridPruning ... 4 (adaptive)
Weight generation scheme         WeightScheme... mBecke (2022)
Basis function cutoff            BFCut       ... 1.0000e-12
Integration weight cutoff        WCut        ... 1.0000e-14
Partially contracted basis set               ... on
Rotationally invariant grid construction     ... off
Angular grids for H and He will be reduced by one unit
Diffuse basis detected: some atoms will have their outermost
                        angular grid increased by 1.

Total number of grid points                  ...     1710
Total number of batches                      ...       15
Average number of points per batch           ...      114
Average number of grid points per atom       ...      570
UseSFitting                                  ... on

GRIDX 2
-------
General Integration Accuracy     IntAcc      ... 4.020
Radial Grid Type                 RadialGrid  ... OptM3 with GC (2021)
Angular Grid (max. ang.)         AngularGrid ... 2 (Lebedev-110)
Angular grid pruning method      GridPruning ... 4 (adaptive)
Weight generation scheme         WeightScheme... mBecke (2022)
Basis function cutoff            BFCut       ... 1.0000e-12
Integration weight cutoff        WCut        ... 1.0000e-14
Partially contracted basis set               ... on
Rotationally invariant grid construction     ... off
Angular grids for H and He will be reduced by one unit
Diffuse basis detected: some atoms will have their outermost
                        angular grid increased by 1.

Total number of grid points                  ...     3921
Total number of batches                      ...       33
Average number of points per batch           ...      118
Average number of grid points per atom       ...     1307
UseSFitting                                  ... on

GRIDX 3
-------
General Integration Accuracy     IntAcc      ... 4.338
Radial Grid Type                 RadialGrid  ... OptM3 with GC (2021)
Angular Grid (max. ang.)         AngularGrid ... 3 (Lebedev-194)
Angular grid pruning method      GridPruning ... 4 (adaptive)
Weight generation scheme         WeightScheme... mBecke (2022)
Basis function cutoff            BFCut       ... 1.0000e-12
Integration weight cutoff        WCut        ... 1.0000e-14
Partially contracted basis set               ... on
Rotationally invariant grid construction     ... off
Angular grids for H and He will be reduced by one unit
Diffuse basis detected: some atoms will have their outermost
                        angular grid increased by 1.

Total number of grid points                  ...     8521
Total number of batches                      ...       68
Average number of points per batch           ...      125
Average number of grid points per atom       ...     2840
UseSFitting                                  ... on
Initializing property integral containers    ... done (  0.0 sec)

SHARK setup successfully completed in   0.2 seconds

Maximum memory used throughout the entire STARTUP-calculation: 25.9 MB
-------------------------------------------------------------------------------
                                 ORCA GUESS
                   Start orbitals & Density for SCF / CASSCF
-------------------------------------------------------------------------------

------------
SCF SETTINGS
------------
Hamiltonian:
 Density Functional     Method          .... DFT(GTOs)
 Exchange Functional    Exchange        .... WB97X
 Correlation Functional Correlation     .... WB97X
 Gradients option       PostSCFGGA      .... off
 Hybrid DFT is turned on
   Fraction HF Exchange ScalHFX         ....  0.157706
   Scaling of DF-GGA-X  ScalDFX         ....  0.000000
   Scaling of DF-GGA-C  ScalDFC         ....  1.000000
   Scaling of DF-LDA-C  ScalLDAC        ....  1.000000
   Perturbative correction              ....  0.000000
 Long-range corrected/Screened/Range-Separated Hybrid DFT is turned on
   Amount of maximum screened exact exchange              ....  0.842294
   Range separation parameter mu (erf(mu*r12)/r12)        ....  0.300000
 RI-approximation to the Coulomb term is turned on
   Number of AuxJ basis functions       .... 71
   RIJ-COSX (HFX calculated with COS-X)).... on


General Settings:
 Integral files         IntName         .... bsse_job2
 Hartree-Fock type      HFTyp           .... RHF
 Total Charge           Charge          ....    0
 Multiplicity           Mult            ....    1
 Number of Electrons    NEL             ....   10
 Basis Dimension        Dim             ....  117
 Nuclear Repulsion      ENuc            ....      9.1725911092 Eh

Convergence Acceleration:
 AO-DIIS                CNVDIIS         .... on
   Start iteration      DIISMaxIt       ....    12
   Startup error        DIISStart       ....  0.200000
   # of expansion vecs  DIISMaxEq       ....     5
   Bias factor          DIISBfac        ....   1.050
   Max. coefficient     DIISMaxC        ....  10.000
 MO-DIIS                CNVKDIIS        .... off
 Trust-Rad. Augm. Hess. CNVTRAH         .... auto
   Auto Start mean grad. ratio tolernc. ....  1.125000
   Auto Start start iteration           ....    50
   Auto Start num. interpolation iter.  ....    10
   Max. Number of Micro iterations      ....    24
   Max. Number of Macro iterations      .... Maxiter - #DIIS iter
   Number of Davidson start vectors     ....     2
   Converg. threshold    (grad. norm)   ....   2.000e-06
   Grad. Scal. Fac. for Micro threshold ....   0.100
   Minimum threshold for Micro iter.    ....   1.000e-02
   NR start threshold (gradient norm)   ....   1.000e-04
   Initial trust radius                 ....   0.400
   Minimum AH scaling param. (alpha)    ....   1.000
   Maximum AH scaling param. (alpha)    .... 1000.000
   Quad. conv. algorithm                .... NR
   White noise on init. David. guess    .... on
   Maximum white noise                  ....   0.010
   Pseudo random numbers                .... off
   Inactive MOs                         .... canonical
   Orbital update algorithm             .... Taylor
   Preconditioner                       .... Diag
   Full preconditioner red. dimension   ....   250
 SOSCF                  CNVSOSCF        .... on
   Start iteration      SOSCFMaxIt      ....   150
   Startup grad/error   SOSCFStart      ....  0.003300
   Hessian update       SOSCFHessUp     .... L-BFGS
 Level Shifting         CNVShift        .... on
   Level shift para.    LevelShift      ....    0.2500
   Turn off err/grad.   ShiftErr        ....    0.0010
 Zerner damping         CNVZerner       .... off
 Static damping         CNVDamp         .... on
   Fraction old density DampFac         ....    0.7000
   Max. Damping (<1)    DampMax         ....    0.9800
   Min. Damping (>=0)   DampMin         ....    0.0000
   Turn off err/grad.   DampErr         ....    0.1000

SCF Procedure:
 Maximum # iterations   MaxIter         ....   125
 SCF integral mode      SCFMode         .... Direct
   Integral package                     .... SHARK and LIBINT hybrid scheme
 Reset frequency        DirectResetFreq ....    20
 Integral Threshold     Thresh          ....  1.000e-12 Eh
 Primitive CutOff       TCut            ....  1.000e-14 Eh

Convergence Tolerance:
 Convergence Check Mode ConvCheckMode   .... Total+1el-Energy
 Convergence forced     ConvForced      .... 0
 Energy Change          TolE            ....  1.000e-09 Eh
 1-El. energy change                    ....  1.000e-06 Eh
 Orbital Gradient       TolG            ....  2.000e-06
 Orbital Rotation angle TolX            ....  2.000e-06
 DIIS Error             TolErr          ....  1.000e-08

------------------------------
INITIAL GUESS: MODEL POTENTIAL
------------------------------
Loading Hartree-Fock densities                     ... done
Calculating cut-offs                               ... done
Initializing the effective Hamiltonian             ... done
Setting up the integral package (SHARK)            ... done
Starting the Coulomb interaction                   ... done (   0.0 sec)
Making the grid                                    ... done (   0.0 sec)
Mapping shells                                     ... done
Starting the XC term evaluation                    ... done (   0.0 sec)
  promolecular density results
     # of electrons  =      9.998875163
     EX              =     -8.730462235
     EC              =     -0.316191942
     EX+EC           =     -9.046654177
Transforming the Hamiltonian                       ... done (   0.0 sec)
Diagonalizing the Hamiltonian                      ... done (   0.0 sec)
Back transforming the eigenvectors                 ... done (   0.0 sec)
Now organizing SCF variables                       ... done
                      ------------------
                      INITIAL GUESS DONE (   0.1 sec)
                      ------------------
             **** ENERGY FILE WAS UPDATED (bsse_job2.en.tmp) ****
Finished Guess after   0.1 sec
Maximum memory used throughout the entire GUESS-calculation: 11.8 MB

-------------------------------------------------------------------------------------------
                                      ORCA LEAN-SCF
                              memory conserving SCF solver
-------------------------------------------------------------------------------------------

----------------------------------------D-I-I-S--------------------------------------------
Iteration    Energy (Eh)           Delta-E    RMSDP     MaxDP     DIISErr   Damp  Time(sec)
-------------------------------------------------------------------------------------------
               ***  Starting incremental Fock matrix formation  ***
    1    -76.3554314494206352     0.00e+00  1.26e-03  3.43e-02  3.39e-01  0.700   0.4
    2    -76.3979104500770774    -4.25e-02  8.56e-04  2.73e-02  1.58e-01  0.700   0.2
                               ***Turning on AO-DIIS***
    3    -76.4154595176154459    -1.75e-02  3.73e-04  1.54e-02  5.56e-02  0.700   0.4
    4    -76.4258655573505052    -1.04e-02  7.35e-04  3.01e-02  3.05e-02  0.000   0.2
    5    -76.4487033724059302    -2.28e-02  6.70e-05  1.40e-03  4.50e-03  0.000   0.2
                              *** Initializing SOSCF ***
---------------------------------------S-O-S-C-F--------------------------------------
Iteration    Energy (Eh)           Delta-E    RMSDP     MaxDP     MaxGrad    Time(sec)
--------------------------------------------------------------------------------------
    6    -76.4487242545628902    -2.09e-05  3.40e-05  1.12e-03  5.49e-04     0.2
               *** Restarting incremental Fock matrix formation ***
    7    -76.4487354140480733    -1.12e-05  1.42e-05  5.02e-04  1.39e-04     0.4
    8    -76.4487355489836631    -1.35e-07  7.61e-06  2.92e-04  5.82e-05     0.6
    9    -76.4487355687209913    -1.97e-08  8.00e-07  2.42e-05  1.82e-05     0.3
   10    -76.4487355703756322    -1.65e-09  6.21e-07  1.91e-05  1.12e-05     0.3
   11    -76.4487355711004568    -7.25e-10  2.92e-08  6.87e-07  4.86e-07     0.4
                 **** Energy Check signals convergence ****

               *****************************************************
               *                     SUCCESS                       *
               *           SCF CONVERGED AFTER  11 CYCLES          *
               *****************************************************

Recomputing exchange energy using gridx3       ... done (    0.486 sec)
Old exchange energy                            :     -2.744406230 Eh
New exchange energy                            :     -2.744413068 Eh
Exchange energy change after final integration :     -0.000006838 Eh
Total energy after final integration           :    -76.448742409 Eh
             **** ENERGY FILE WAS UPDATED (bsse_job2.en.tmp) ****

----------------
TOTAL SCF ENERGY
----------------

Total Energy       :        -76.44874240868371 Eh           -2080.27604 eV

Components:
Nuclear Repulsion  :          9.17259110923076 Eh             249.59889 eV
Electronic Energy  :        -85.62132668033121 Eh           -2329.87475 eV
One Electron Energy:       -123.03584917805716 Eh           -3347.97566 eV
Two Electron Energy:         37.41452249772595 Eh            1018.10092 eV

Virial components:
Potential Energy   :       -152.62884974579242 Eh           -4153.24215 eV
Kinetic Energy     :         76.18010733710871 Eh            2072.96611 eV
Virial Ratio       :          2.00352631521489

DFT components:
N(Alpha)           :        4.999994197958 electrons
N(Beta)            :        4.999994197958 electrons
N(Total)           :        9.999988395916 electrons
E(XC)              :       -6.570046021148 Eh       

---------------
SCF CONVERGENCE
---------------

  Last Energy change         ...    7.2482e-10  Tolerance :   1.0000e-09
  Last MAX-Density change    ...    6.8728e-07  Tolerance :   1.0000e-08
  Last RMS-Density change    ...    2.9164e-08  Tolerance :   1.0000e-09
  Last DIIS Error            ...    5.4899e-04  Tolerance :   1.0000e-08
  Last Orbital Gradient      ...    4.8575e-07  Tolerance :   2.0000e-06
  Last Orbital Rotation      ...    1.1778e-06  Tolerance :   2.0000e-06


----------------
ORBITAL ENERGIES
----------------

  NO   OCC          E(Eh)            E(eV) 
   0   2.0000     -19.200342      -522.4679 
   1   2.0000      -1.141291       -31.0561 
   2   2.0000      -0.644401       -17.5350 
   3   2.0000      -0.505409       -13.7529 
   4   2.0000      -0.428334       -11.6555 
   5   0.0000       0.095417         2.5964 
   6   0.0000       0.151805         4.1308 
   7   0.0000       0.330120         8.9830 
   8   0.0000       0.354147         9.6368 
   9   0.0000       0.356149         9.6913 
  10   0.0000       0.394999        10.7485 
  11   0.0000       0.475037        12.9264 
  12   0.0000       0.542658        14.7665 
  13   0.0000       0.604984        16.4625 
  14   0.0000       0.659996        17.9594 
  15   0.0000       0.690050        18.7772 
*Only the first 10 virtual orbitals were printed.

                    ********************************
                    * MULLIKEN POPULATION ANALYSIS *
                    ********************************

-----------------------
MULLIKEN ATOMIC CHARGES
-----------------------
   0 O :   -0.427361
   1 H :    0.213635
   2 H :    0.213725
Sum of atomic charges:   -0.0000000

--------------------------------
MULLIKEN REDUCED ORBITAL CHARGES
--------------------------------
  0 O s       :     3.788787  s :     3.788787
      pz      :     1.220092  p :     4.620099
      px      :     1.738341
[...]
  12   0.0000       0.378777        10.3070 
  13   0.0000       0.380776        10.3614 
  14   0.0000       0.421002        11.4561 
  15   0.0000       0.460332        12.5263 
*Only the first 10 virtual orbitals were printed.

                    ********************************
                    * MULLIKEN POPULATION ANALYSIS *
                    ********************************

-----------------------
MULLIKEN ATOMIC CHARGES
-----------------------
   0 O :    0.001427
   1 H :    0.000565
   2 H :   -0.006533
   3 O :   -0.442347
   4 H :    0.223395
   5 H :    0.223492
Sum of atomic charges:    0.0000000

--------------------------------
MULLIKEN REDUCED ORBITAL CHARGES
--------------------------------
  0 O s       :    -0.002116  s :    -0.002116
      pz      :     0.000021  p :     0.000588
      px      :     0.000080
      py      :     0.000487
      dz2     :    -0.000018  d :     0.000104
      dxz     :    -0.000002
      dyz     :     0.000000
      dx2y2   :     0.000114
      dxy     :     0.000009
      f0      :    -0.000000  f :    -0.000003
      f+1     :     0.000003
      f-1     :     0.000000
      f+2     :    -0.000000
      f-2     :     0.000000
      f+3     :    -0.000005
      f-3     :    -0.000002
      g0      :    -0.000000  g :     0.000000
      g+1     :    -0.000000
      g-1     :     0.000000
      g+2     :     0.000000
      g-2     :    -0.000000
      g+3     :    -0.000000
      g-3     :    -0.000000
      g+4     :     0.000000
      g-4     :    -0.000000

  1 H s       :    -0.000764  s :    -0.000764
      pz      :    -0.000000  p :     0.000203
      px      :     0.000061
      py      :     0.000141
      dz2     :     0.000004  d :    -0.000003
      dxz     :    -0.000000
      dyz     :     0.000000
      dx2y2   :    -0.000009
      dxy     :     0.000001
      f0      :    -0.000000  f :    -0.000000
      f+1     :     0.000000
      f-1     :     0.000000
      f+2     :    -0.000000
      f-2     :     0.000000
      f+3     :     0.000000
      f-3     :    -0.000000

  2 H s       :     0.010573  s :     0.010573
      pz      :     0.000031  p :    -0.003890
      px      :    -0.002689
      py      :    -0.001232
      dz2     :    -0.000052  d :    -0.000165
      dxz     :    -0.000015
      dyz     :     0.000000
      dx2y2   :    -0.000173
      dxy     :     0.000075
      f0      :    -0.000000  f :     0.000014
      f+1     :     0.000007
      f-1     :    -0.000000
      f+2     :    -0.000000
      f-2     :    -0.000000
      f+3     :     0.000011
      f-3     :    -0.000003

  3 O s       :     3.777828  s :     3.777828
      pz      :     1.219069  p :     4.645484
      px      :     1.731909
      py      :     1.694507
      dz2     :     0.000678  d :     0.017806
      dxz     :     0.004469
      dyz     :     0.006660
      dx2y2   :     0.002251
      dxy     :     0.003748
      f0      :     0.000071  f :     0.001212
      f+1     :     0.000253
      f-1     :     0.000382
      f+2     :     0.000014
      f-2     :     0.000323
      f+3     :     0.000103
      f-3     :     0.000067
      g0      :     0.000000  g :     0.000016
      g+1     :     0.000007
      g-1     :     0.000010
      g+2     :     0.000005
      g-2     :    -0.000005
      g+3     :    -0.000002
      g-3     :    -0.000000
      g+4     :     0.000001
      g-4     :     0.000001

  4 H s       :     0.666004  s :     0.666004
      pz      :     0.019552  p :     0.096104
      px      :     0.035431
      py      :     0.041121
      dz2     :     0.003375  d :     0.013135
      dxz     :     0.003056
      dyz     :     0.003890
      dx2y2   :     0.001549
      dxy     :     0.001265
      f0      :     0.000341  f :     0.001361
      f+1     :     0.000195
      f-1     :     0.000222
      f+2     :     0.000320
      f-2     :     0.000174
      f+3     :     0.000048
      f-3     :     0.000061

  5 H s       :     0.665934  s :     0.665934
      pz      :     0.019313  p :     0.096085
      px      :     0.035467
      py      :     0.041305
      dz2     :     0.003490  d :     0.013128
      dxz     :     0.002956
      dyz     :     0.003549
      dx2y2   :     0.001751
      dxy     :     0.001383
      f0      :     0.000323  f :     0.001361
      f+1     :     0.000184
      f-1     :     0.000213
      f+2     :     0.000332
      f-2     :     0.000178
      f+3     :     0.000055
      f-3     :     0.000076



                     *******************************
                     * LOEWDIN POPULATION ANALYSIS *
                     *******************************

----------------------
LOEWDIN ATOMIC CHARGES
----------------------
   0 O :   -0.009543
   1 H :   -0.001296
   2 H :   -0.082543
   3 O :    0.805490
   4 H :   -0.356071
   5 H :   -0.356038

-------------------------------
LOEWDIN REDUCED ORBITAL CHARGES
-------------------------------
  0 O s       :     0.000561  s :     0.000561
      pz      :     0.000078  p :     0.008855
      px      :     0.008320
      py      :     0.000458
      dz2     :     0.000027  d :     0.000125
      dxz     :     0.000001
      dyz     :     0.000000
      dx2y2   :     0.000092
      dxy     :     0.000005
      f0      :     0.000000  f :     0.000002
      f+1     :     0.000000
      f-1     :     0.000000
      f+2     :     0.000000
      f-2     :     0.000000
      f+3     :     0.000000
      f-3     :     0.000001
      g0      :     0.000000  g :     0.000000
      g+1     :     0.000000
      g-1     :     0.000000
      g+2     :     0.000000
      g-2     :     0.000000
      g+3     :     0.000000
      g-3     :     0.000000
      g+4     :     0.000000
      g-4     :     0.000000

  1 H s       :     0.001208  s :     0.001208
      pz      :     0.000000  p :     0.000083
      px      :     0.000034
      py      :     0.000049
      dz2     :     0.000001  d :     0.000004
      dxz     :     0.000000
      dyz     :     0.000000
      dx2y2   :     0.000003
      dxy     :     0.000000
      f0      :     0.000000  f :     0.000001
      f+1     :     0.000000
      f-1     :     0.000000
      f+2     :     0.000000
      f-2     :     0.000000
      f+3     :     0.000000
      f-3     :     0.000000

  2 H s       :     0.038203  s :     0.038203
      pz      :     0.000564  p :     0.037604
      px      :     0.035033
      py      :     0.002006
      dz2     :     0.001469  d :     0.006486
      dxz     :     0.000229
      dyz     :     0.000001
      dx2y2   :     0.004180
      dxy     :     0.000607
      f0      :     0.000006  f :     0.000250
      f+1     :     0.000078
      f-1     :     0.000002
      f+2     :     0.000010
      f-2     :     0.000000
      f+3     :     0.000122
      f-3     :     0.000031

  3 O s       :     3.013603  s :     3.013603
      pz      :     1.203861  p :     4.120114
      px      :     1.437451
      py      :     1.478802
      dz2     :     0.011987  d :     0.050949
      dxz     :     0.014333
      dyz     :     0.021138
      dx2y2   :     0.001170
      dxy     :     0.002321
      f0      :     0.000467  f :     0.009358
      f+1     :     0.002133
      f-1     :     0.002711
      f+2     :     0.000150
      f-2     :     0.003412
      f+3     :     0.000240
      f-3     :     0.000246
      g0      :     0.000024  g :     0.000485
      g+1     :     0.000003
      g-1     :     0.000005
      g+2     :     0.000263
      g-2     :     0.000048
      g+3     :     0.000094
      g-3     :     0.000027
      g+4     :     0.000007
      g-4     :     0.000014

  4 H s       :     0.685583  s :     0.685583
      pz      :     0.139734  p :     0.444208
      px      :     0.149386
      py      :     0.155088
      dz2     :     0.049155  d :     0.187196
      dxz     :     0.045962
      dyz     :     0.046804
      dx2y2   :     0.025294
      dxy     :     0.019981
      f0      :     0.009472  f :     0.039085
      f+1     :     0.005314
      f-1     :     0.005534
      f+2     :     0.009828
      f-2     :     0.005591
      f+3     :     0.001464
      f-3     :     0.001881

  5 H s       :     0.685573  s :     0.685573
      pz      :     0.135876  p :     0.444191
      px      :     0.148991
      py      :     0.159325
      dz2     :     0.049315  d :     0.187191
      dxz     :     0.044034
      dyz     :     0.044283
      dx2y2   :     0.027570
      dxy     :     0.021988
      f0      :     0.008986  f :     0.039083
      f+1     :     0.004950
      f-1     :     0.005369
      f+2     :     0.010012
      f-2     :     0.005785
      f+3     :     0.001644
      f-3     :     0.002337



                      *****************************
                      * MAYER POPULATION ANALYSIS *
                      *****************************

  NA   - Mulliken gross atomic population
  ZA   - Total nuclear charge
  QA   - Mulliken gross atomic charge
  VA   - Mayer's total valence
  BVA  - Mayer's bonded valence
  FA   - Mayer's free valence

  ATOM       NA         ZA         QA         VA         BVA        FA
  0 O     -0.0014     0.0000     0.0014    -0.0029    -0.0029     0.0000
  1 H     -0.0006     0.0000     0.0006    -0.0011    -0.0011     0.0000
  2 H      0.0065     0.0000    -0.0065     0.0130     0.0130    -0.0000
  3 O      8.4423     8.0000    -0.4423     2.0648     2.0648     0.0000
  4 H      0.7766     1.0000     0.2234     1.0493     1.0493     0.0000
  5 H      0.7765     1.0000     0.2235     1.0493     1.0493     0.0000

  Mayer bond orders larger than 0.100000
B(  3-O ,  4-H ) :   1.0276 B(  3-O ,  5-H ) :   1.0276 

-------
TIMINGS
-------

Total SCF time: 0 days 0 hours 0 min 15 sec 

Total time                  ....      15.395 sec
Sum of individual times     ....      15.361 sec  ( 99.8%)

SCF preparation             ....       0.065 sec  (  0.4%)
Fock matrix formation       ....      14.750 sec  ( 95.8%)
  Startup                   ....       0.037 sec  (  0.3% of F)
  Split-RI-J                ....       0.377 sec  (  2.6% of F)
  Chain of spheres X        ....      12.206 sec  ( 82.8% of F)
  XC integration            ....       2.083 sec  ( 14.1% of F)
    XC Preparation          ....       0.000 sec  (  0.0% of XC)
    Basis function eval.    ....       0.483 sec  ( 23.2% of XC)
    Density eval.           ....       0.261 sec  ( 12.5% of XC)
    XC-Functional eval.     ....       0.084 sec  (  4.0% of XC)
    XC-Potential eval.      ....       0.857 sec  ( 41.1% of XC)
Diagonalization             ....       0.000 sec  (  0.0%)
Density matrix formation    ....       0.134 sec  (  0.9%)
Total Energy calculation    ....       0.127 sec  (  0.8%)
Population analysis         ....       0.013 sec  (  0.1%)
Orbital Transformation      ....       0.022 sec  (  0.1%)
Orbital Orthonormalization  ....       0.000 sec  (  0.0%)
DIIS solution               ....       0.157 sec  (  1.0%)
SOSCF solution              ....       0.093 sec  (  0.6%)
Finished LeanSCF after  15.4 sec

Maximum memory used throughout the entire LEANSCF-calculation: 23.2 MB

-------------------------   --------------------
FINAL SINGLE POINT ENERGY       -76.448940452520
-------------------------   --------------------


------------------------------------------------------------------------------
                              ORCA PROPERTY CALCULATIONS
------------------------------------------------------------------------------

GBWName                                 ... bsse_job5.gbw
Number of atoms                         ...      6
Number of basis functions               ...    234
Max core memory                         ...   1024 MB

Electric properties:
Dipole moment                           ... YES
Quadrupole moment                       ...  NO
Static polarizability (Dipole/Dipole)   ...  NO
Static polarizability (Dipole/Quad.)    ...  NO
Static polarizability (Quad./Quad.)     ...  NO
Static polarizability (Velocity)        ...  NO

Atomic electric properties:
Dipole moment                           ...  NO
Quadrupole moment                       ...  NO
Static polarizability                   ...  NO

Choice of electric origin               ... Center of mass
Position of electric origin             ...     4.276023    -0.046218     0.003364

General magnetic properties:
Magnetizability                         ...  NO

EPR properties:
g-Tensor (aka g-matrix)                 ...  NO
Zero-Field splitting spin-orbit         ...  NO
Zero-field splitting spin-spin          ...  NO
Hyperfine couplings                     ...  NO (   0 nuclei)
Quadrupole couplings                    ...  NO (   0 nuclei)
Contact density                         ...  NO (   0 nuclei)

NMR properties:
Chemical shifts                         ...  NO (   0 nuclei)
Spin-rotation constants                 ...  NO (   0 nuclei)
Spin-spin couplings                     ...  NO (   0 nuclei,    0 pairs)

Choice of magnetic origin               ... GIAO
Position of magnetic origin             ...     0.000000     0.000000     0.000000

Properties with geometric perturbations:
SCF Hessian                             ...  NO
IR spectrum                             ...  NO
VCD spectrum                            ...  NO
X-ray spectroscopy properties:
SCF XES/XAS/RIXS spectra                ...  NO


-------------
DIPOLE MOMENT
-------------

Method             : SCF
Type of density    : Electron Density
Multiplicity       :   1
Irrep              :   0
Energy             :   -76.4489404525200484 Eh
Relativity type    : 
Basis              : AO
                                X                 Y                 Z
Electronic contribution:     -0.139834381       0.174615045      -0.003963600
Nuclear contribution   :      0.623343171      -0.761271246       0.017248077
                        -----------------------------------------
Total Dipole Moment    :      0.483508790      -0.586656202       0.013284477
                        -----------------------------------------
Magnitude (a.u.)       :      0.760343821
Magnitude (Debye)      :      1.932640404



--------------------
Rotational spectrum 
--------------------
 
Rotational constants in cm-1:            26.945200            14.630495             9.482021 
Rotational constants in MHz :        807796.770105        438611.199658        284263.835767 

Dipole components along the rotational axes: 
x,y,z [a.u.] :    -0.000014    -0.760340    -0.002433 
x,y,z [Debye]:    -0.000036    -1.932631    -0.006183 

 

Dipole moment calculation done in   0.0 sec 

Maximum memory used throughout the entire PROP-calculation: 16.4 MB

--------------------------------
SUGGESTED CITATIONS FOR THIS RUN
--------------------------------

Below you find a list of papers that are relevant to this ORCA run
We neither can nor want to force you to cite these papers, but we appreciate if you do
You receive ORCA, which is the product of decades of hard work by many enthusiastic individuals, for free
The only thing we kindly ask in return is that you cite our papers,
We deeply appreciate it, if you show your appreciation for ORCA by not just citing the generic ORCA reference.

Please note that relegating all ORCA citations to the supporting information does *not* help us.
SI sections are not indexed - citations you put there will not count into any citation statistics
But we need these citations in order to attract the funding resources that allow us to do what we are doing

Therefore, if you are a happy ORCA user, please consider citing a few of the papers listed below in the main body of your paper

In addition to the list printed below, the program has created the file bsse_job5.bibtex that contains the list in bibtex format
You can import this file easily into all common literature databanks and citation aid programs


List of essential papers. We consider these as the minimum necessary citations

  1. Neese,F.
     Software update: the ORCA program system, version 5.0
     WIRES Comput. Molec. Sci., 2022 12(1)e1606
     doi.org/10.1002/wcms.1606

List of papers to cite with high priority. The work reported in these papers was absolutely
necessary for this run to complete.
Our perspective: the developers of density functionals and basis sets usually get cited in chemistry papers
Good! But without the algorithms to do something with them, the functionals or basis sets would not do anything.
Hence, in our opinion, the algorithm design and method developments papers are equally worthy of getting cited

  1. Neese,F.
     An improvement of the resolution of the identity approximation for the formation of the Coulomb matrix
     J. Comp. Chem., 2003 24(14)1740-1747
     doi.org/10.1002/jcc.10318
  2. Neese,F.; Wennmohs,F.; Hansen,A.; Becker,U.
     Efficient, approximate and parallel Hartree-Fock and hybrid DFT calculations. A 'chain-of-spheres' algorithm for the Hartree-Fock exchange
     Chem. Phys., 2009 356(1-3)98-109
     doi.org/10.1016/j.chemphys.2008.10.036
  3. Helmich-Paris,B.; de Souza,B.; Neese,F.; Izsák,R.
     An improved chain of spheres for exchange algorithm
     J. Chem. Phys., 2021 155 104109
     doi.org/doi: 10.1063/5.0058766.
  4. Neese,F.
     The SHARK Integral Generation and Digestion System
     J. Comp. Chem., 2022  1-16
     doi.org/10.1002/jcc.26942

List of suggested additional citations. These are papers that are important in the 'surrounding' of 
of this run, or papers that preceded the highly important papers. If you like your results we are grateful for a citation.

  1. Izsak,R.; Neese,F.
     An overlap fitted chain of spheres exchange method
     J. Chem. Phys., 2011 135 144105
     doi.org/10.1063/1.3646921
  2. Izsak,R.; Hansen,A.; Neese,F.
     The resolution of identity and chain of spheres approximations for the LPNO-CCSD singles Fock term
     Molec. Phys., 2012 110 2413-2417
     doi.org/10.1080/00268976.2012.687466
  3. Neese,F.
     The ORCA program system
     WIRES Comput. Molec. Sci., 2012 2(1)73-78
     doi.org/10.1002/wcms.81
  4. Izsak,R.; Neese,F.; Klopper,W.
     Robust fitting techniques in the chain of spheres approximation to the Fock exchange: The role of the complementary space
     J. Chem. Phys., 2013 139 
     doi.org/10.1063/1.4819264
  5. Neese,F.
     Software update: the ORCA program system, version 4.0
     WIRES Comput. Molec. Sci., 2018 8(1)1-6
     doi.org/10.1002/wcms.1327
  6. Neese,F.; Wennmohs,F.; Becker,U.; Riplinger,C.
     The ORCA quantum chemistry program package
     J. Chem. Phys., 2020 152 Art. No. L224108
     doi.org/10.1063/5.0004608

List of optional additional citations

  1. Neese,F.
     Approximate second-order SCF convergence for spin unrestricted wavefunctions
     Chem. Phys. Lett., 2000 325(1-3)93-98
     doi.org/10.1016/s0009-2614(00)00662-x

Timings for individual modules:

Sum of individual times          ...       16.099 sec (=   0.268 min)
Startup calculation              ...        0.351 sec (=   0.006 min)   2.2 %
SCF iterations                   ...       15.665 sec (=   0.261 min)  97.3 %
Property calculations            ...        0.082 sec (=   0.001 min)   0.5 %

Energy for          monomer from job 1  =    -76.448676887
Energy for          monomer from job 2  =    -76.448742409
Energy for            dimer from job 3  =   -152.906555193
Energy for    monomer_ghost from job 4  =    -76.448737775
Energy for    monomer_ghost from job 5  =    -76.448940453


Energy for fragment          monomer:   -152.897419296 Eh
Energy for fragment            dimer:   -152.906555193 Eh   -5.733 kcal/mol
Energy for fragment    monomer_ghost:   -152.897678227 Eh   -0.162 kcal/mol

----------------------------
REACTION ENERGIES (kcal/mol)  -5.733  -0.162 
----------------------------

                             ****ORCA TERMINATED NORMALLY****
TOTAL RUN TIME: 0 days 0 hours 0 minutes 57 seconds 200 msec
